 cputime      unlimited
 filesize     unlimited
 datasize     unlimited
 stacksize    unlimited
 coredumpsize 0 kbytes
 memoryuse    256000 kbytes
 vmemoryuse   unlimited
 descriptors  1024 
 memorylocked 8192 kbytes
 maxproc      382511 
 maxlocks     unlimited
 maxsignal    382511 
 maxmessage   819200 
 maxnice      0 
 maxrtprio    0 
 maxrttime    unlimited
 Fri Aug  4 08:50:07 AM IDT 2023
 ark
 
        *=*=*=*=*=*=*=*=*=*=*=*=*=*=*=*=*
        * xrung16: Running g16          *
        * (Command = time /bin/nice g16 *
        *=*=*=*=*=*=*=*=*=*=*=*=*=*=*=*=*
        g16root=/private/chem/g16E03
        g16 = /private/chem/g16E03/g16/g16
 
 Entering Gaussian System, Link 0=g16
 Initial command:
 /private/chem/g16E03/g16/l1.exe "/var/spool/scratch/tchem07/g16/2-2_charged_pka/Gau-369827.inp" -scrdir="/var/spool/scratch/tchem07/g16/2-2_charged_pka/"
 Entering Link 1 = /private/chem/g16E03/g16/l1.exe PID=    369828.
  
 Copyright (c) 1988,1990,1992,1993,1995,1998,2003,2009,2016,
            Gaussian, Inc.  All Rights Reserved.
  
 This is part of the Gaussian(R) 16 program.  It is based on
 the Gaussian(R) 09 system (copyright 2009, Gaussian, Inc.),
 the Gaussian(R) 03 system (copyright 2003, Gaussian, Inc.),
 the Gaussian(R) 98 system (copyright 1998, Gaussian, Inc.),
 the Gaussian(R) 94 system (copyright 1995, Gaussian, Inc.),
 the Gaussian 92(TM) system (copyright 1992, Gaussian, Inc.),
 the Gaussian 90(TM) system (copyright 1990, Gaussian, Inc.),
 the Gaussian 88(TM) system (copyright 1988, Gaussian, Inc.),
 the Gaussian 86(TM) system (copyright 1986, Carnegie Mellon
 University), and the Gaussian 82(TM) system (copyright 1983,
 Carnegie Mellon University). Gaussian is a federally registered
 trademark of Gaussian, Inc.
  
 This software contains proprietary and confidential information,
 including trade secrets, belonging to Gaussian, Inc.
  
 This software is provided under written license and may be
 used, copied, transmitted, or stored only in accord with that
 written license.
  
 The following legend is applicable only to US Government
 contracts under FAR:
  
                    RESTRICTED RIGHTS LEGEND
  
 Use, reproduction and disclosure by the US Government is
 subject to restrictions as set forth in subparagraphs (a)
 and (c) of the Commercial Computer Software - Restricted
 Rights clause in FAR 52.227-19.
  
 Gaussian, Inc.
 340 Quinnipiac St., Bldg. 40, Wallingford CT 06492
  
  
 ---------------------------------------------------------------
 Warning -- This program may not be used in any manner that
 competes with the business of Gaussian, Inc. or will provide
 assistance to any competitor of Gaussian, Inc.  The licensee
 of this program is prohibited from giving any competitor of
 Gaussian, Inc. access to this program.  By using this program,
 the user acknowledges that Gaussian, Inc. is engaged in the
 business of creating and licensing software in the field of
 computational chemistry and represents and warrants to the
 licensee that it is not a competitor of Gaussian, Inc. and that
 it will not use this program in any manner prohibited above.
 ---------------------------------------------------------------
  

 Cite this work as:
 Gaussian 16, Revision A.03,
 M. J. Frisch, G. W. Trucks, H. B. Schlegel, G. E. Scuseria, 
 M. A. Robb, J. R. Cheeseman, G. Scalmani, V. Barone, 
 G. A. Petersson, H. Nakatsuji, X. Li, M. Caricato, A. V. Marenich, 
 J. Bloino, B. G. Janesko, R. Gomperts, B. Mennucci, H. P. Hratchian, 
 J. V. Ortiz, A. F. Izmaylov, J. L. Sonnenberg, D. Williams-Young, 
 F. Ding, F. Lipparini, F. Egidi, J. Goings, B. Peng, A. Petrone, 
 T. Henderson, D. Ranasinghe, V. G. Zakrzewski, J. Gao, N. Rega, 
 G. Zheng, W. Liang, M. Hada, M. Ehara, K. Toyota, R. Fukuda, 
 J. Hasegawa, M. Ishida, T. Nakajima, Y. Honda, O. Kitao, H. Nakai, 
 T. Vreven, K. Throssell, J. A. Montgomery, Jr., J. E. Peralta, 
 F. Ogliaro, M. J. Bearpark, J. J. Heyd, E. N. Brothers, K. N. Kudin, 
 V. N. Staroverov, T. A. Keith, R. Kobayashi, J. Normand, 
 K. Raghavachari, A. P. Rendell, J. C. Burant, S. S. Iyengar, 
 J. Tomasi, M. Cossi, J. M. Millam, M. Klene, C. Adamo, R. Cammi, 
 J. W. Ochterski, R. L. Martin, K. Morokuma, O. Farkas, 
 J. B. Foresman, and D. J. Fox, Gaussian, Inc., Wallingford CT, 2016.
 
 ******************************************
 Gaussian 16:  ES64L-G16RevA.03 25-Dec-2016
                 4-Aug-2023 
 ******************************************
 %chk=/home/ch/tchem07/g16/2-2_charged_pka.chk
 -------------------------------------------------------
 #P M062X/6-31+G(d,p) Opt Freq SCRF=(SMD, Solvent=Water)
 -------------------------------------------------------
 1/18=20,19=15,26=3,38=1/1,3;
 2/9=110,12=2,17=6,18=5,40=1/2;
 3/5=1,6=6,7=111,11=2,25=1,30=1,70=32201,71=1,72=1,74=-55/1,2,3;
 4//1;
 5/5=2,38=5,53=1/2;
 6/7=2,8=2,9=2,10=2,28=1/1;
 7//1,2,3,16;
 1/18=20,19=15,26=3/3(2);
 2/9=110/2;
 99//99;
 2/9=110/2;
 3/5=1,6=6,7=111,11=2,25=1,30=1,70=32205,71=1,72=1,74=-55/1,2,3;
 4/5=5,16=3,69=1/1;
 5/5=2,38=5,53=1/2;
 7//1,2,3,16;
 1/18=20,19=15,26=3/3(-5);
 2/9=110/2;
 6/7=2,8=2,9=2,10=2,19=2,28=1/1;
 99/9=1/99;
 Leave Link    1 at Fri Aug  4 08:50:07 2023, MaxMem=           0 cpu:               0.0 elap:               0.1
 (Enter /private/chem/g16E03/g16/l101.exe)
 ---------------
 2-2_charged_pka
 ---------------
 Symbolic Z-matrix:
 Charge =  1 Multiplicity = 1
 N
 C                    1    B1
 C                    2    B2       1    A1
 O                    3    B3       2    A2       1    D1       0
 C                    4    B4       3    A3       2    D2       0
 C                    2    B5       1    A4       3    D3       0
 O                    6    B6       2    A5       1    D4       0
 C                    7    B7       6    A6       2    D5       0
 C                    8    B8       7    A7       6    D6       0
 O                    9    B9       8    A8       7    D7       0
 S                    10   B10      9    A9       8    D8       0
 O                    11   B11      10   A10      9    D9       0
 O                    11   B12      10   A11      9    D10      0
 C                    11   B13      10   A12      9    D11      0
 C                    14   B14      11   A13      10   D12      0
 C                    15   B15      14   A14      11   D13      0
 C                    16   B16      15   A15      14   D14      0
 Br                   17   B17      16   A16      15   D15      0
 C                    17   B18      16   A17      15   D16      0
 C                    19   B19      17   A18      16   D17      0
 H                    1    B20      2    A19      6    D18      0
 H                    1    B21      2    A20      6    D19      0
 H                    1    B22      2    A21      6    D20      0
 H                    2    B23      1    A22      6    D21      0
 H                    3    B24      2    A23      1    D22      0
 H                    3    B25      2    A24      1    D23      0
 H                    5    B26      4    A25      3    D24      0
 H                    6    B27      2    A26      1    D25      0
 H                    8    B28      7    A27      6    D26      0
 H                    8    B29      7    A28      6    D27      0
 H                    9    B30      8    A29      7    D28      0
 H                    15   B31      14   A30      11   D29      0
 H                    16   B32      15   A31      14   D30      0
 H                    19   B33      17   A32      16   D31      0
 H                    20   B34      19   A33      17   D32      0
       Variables:
  B1                    1.47                     
  B2                    1.54334                  
  B3                    1.46355                  
  B4                    1.46233                  
  B5                    1.49287                  
  B6                    1.43998                  
  B7                    1.47676                  
  B8                    1.50113                  
  B9                    1.43                     
  B10                   1.67                     
  B11                   1.4696                   
  B12                   1.4696                   
  B13                   1.78                     
  B14                   1.3552                   
  B15                   1.54                     
  B16                   1.3552                   
  B17                   1.91                     
  B18                   1.54                     
  B19                   1.3552                   
  B20                   1.                       
  B21                   1.                       
  B22                   1.                       
  B23                   1.07                     
  B24                   1.07                     
  B25                   1.07                     
  B26                   1.07                     
  B27                   1.07                     
  B28                   1.07                     
  B29                   1.07                     
  B30                   1.07                     
  B31                   1.07                     
  B32                   1.07                     
  B33                   1.07                     
  B34                   1.07                     
  A1                  110.65252                  
  A2                  101.80596                  
  A3                  101.36819                  
  A4                  112.10715                  
  A5                  115.74414                  
  A6                   95.6796                   
  A7                   98.53415                  
  A8                  105.41013                  
  A9                  109.47122                  
  A10                 109.47122                  
  A11                 109.47122                  
  A12                 109.47122                  
  A13                 120.                       
  A14                 120.                       
  A15                 120.                       
  A16                 120.                       
  A17                 120.                       
  A18                 120.                       
  A19                 109.47122                  
  A20                 109.47122                  
  A21                 109.47122                  
  A22                 107.41342                  
  A23                 112.84181                  
  A24                 110.41085                  
  A25                 108.592                    
  A26                 115.39269                  
  A27                 113.50624                  
  A28                 111.72215                  
  A29                 118.3134                   
  A30                 120.                       
  A31                 120.                       
  A32                 120.                       
  A33                 120.                       
  D1                   62.76509                  
  D2                   42.31471                  
  D3                  107.86661                  
  D4                  172.2494                   
  D5                  157.30724                  
  D6                  -60.01914                  
  D7                  -63.0901                   
  D8                  173.4039                   
  D9                  -60.                       
  D10                  60.                       
  D11                 180.                       
  D12                -120.                       
  D13                 180.                       
  D14                   0.                       
  D15                 180.                       
  D16                   0.                       
  D17                   0.                       
  D18                  54.06915                  
  D19                 174.06915                  
  D20                 -65.93085                  
  D21                 125.65917                  
  D22                 -58.02892                  
  D23                -179.47908                  
  D24                -136.24958                  
  D25                  50.56303                  
  D26                -179.41329                  
  D27                  58.32568                  
  D28                 175.80649                  
  D29                   0.                       
  D30                -180.                       
  D31                 180.                       
  D32                -180.                       
 
     7 tetrahedral angles replaced.
 ITRead=  0  0  0  0  0  0  0  0  0  0  0  0  0  0  0  0  0  0  0  0
 ITRead=  0  0  0  0  0  0  0  0  0  0  0  0  0  0  0
 MicOpt= -1 -1 -1 -1 -1 -1 -1 -1 -1 -1 -1 -1 -1 -1 -1 -1 -1 -1 -1 -1
 MicOpt= -1 -1 -1 -1 -1 -1 -1 -1 -1 -1 -1 -1 -1 -1 -1
 NAtoms=     35 NQM=       35 NQMF=       0 NMMI=      0 NMMIF=      0
                NMic=       0 NMicF=      0.
                    Isotopes and Nuclear Properties:
 (Nuclear quadrupole moments (NQMom) in fm**2, nuclear magnetic moments (NMagM)
  in nuclear magnetons)

  Atom         1           2           3           4           5           6           7           8           9          10
 IAtWgt=          14          12          12          16          12          12          16          12          12          16
 AtmWgt=  14.0030740  12.0000000  12.0000000  15.9949146  12.0000000  12.0000000  15.9949146  12.0000000  12.0000000  15.9949146
 NucSpn=           2           0           0           0           0           0           0           0           0           0
 AtZEff=  -0.0000000  -0.0000000  -0.0000000  -0.0000000  -0.0000000  -0.0000000  -0.0000000  -0.0000000  -0.0000000  -0.0000000
 NQMom=    2.0440000   0.0000000   0.0000000   0.0000000   0.0000000   0.0000000   0.0000000   0.0000000   0.0000000   0.0000000
 NMagM=    0.4037610   0.0000000   0.0000000   0.0000000   0.0000000   0.0000000   0.0000000   0.0000000   0.0000000   0.0000000
 AtZNuc=   7.0000000   6.0000000   6.0000000   8.0000000   6.0000000   6.0000000   8.0000000   6.0000000   6.0000000   8.0000000

  Atom        11          12          13          14          15          16          17          18          19          20
 IAtWgt=          32          16          16          12          12          12          12          79          12          12
 AtmWgt=  31.9720718  15.9949146  15.9949146  12.0000000  12.0000000  12.0000000  12.0000000  78.9183361  12.0000000  12.0000000
 NucSpn=           0           0           0           0           0           0           0           3           0           0
 AtZEff=  -0.0000000  -0.0000000  -0.0000000  -0.0000000  -0.0000000  -0.0000000  -0.0000000  -0.0000000  -0.0000000  -0.0000000
 NQMom=    0.0000000   0.0000000   0.0000000   0.0000000   0.0000000   0.0000000   0.0000000  31.3000000   0.0000000   0.0000000
 NMagM=    0.0000000   0.0000000   0.0000000   0.0000000   0.0000000   0.0000000   0.0000000   2.1063990   0.0000000   0.0000000
 AtZNuc=  16.0000000   8.0000000   8.0000000   6.0000000   6.0000000   6.0000000   6.0000000  35.0000000   6.0000000   6.0000000

  Atom        21          22          23          24          25          26          27          28          29          30
 IAtWgt=           1           1           1           1           1           1           1           1           1           1
 AtmWgt=   1.0078250   1.0078250   1.0078250   1.0078250   1.0078250   1.0078250   1.0078250   1.0078250   1.0078250   1.0078250
 NucSpn=           1           1           1           1           1           1           1           1           1           1
 AtZEff=  -0.0000000  -0.0000000  -0.0000000  -0.0000000  -0.0000000  -0.0000000  -0.0000000  -0.0000000  -0.0000000  -0.0000000
 NQMom=    0.0000000   0.0000000   0.0000000   0.0000000   0.0000000   0.0000000   0.0000000   0.0000000   0.0000000   0.0000000
 NMagM=    2.7928460   2.7928460   2.7928460   2.7928460   2.7928460   2.7928460   2.7928460   2.7928460   2.7928460   2.7928460
 AtZNuc=   1.0000000   1.0000000   1.0000000   1.0000000   1.0000000   1.0000000   1.0000000   1.0000000   1.0000000   1.0000000

  Atom        31          32          33          34          35
 IAtWgt=           1           1           1           1           1
 AtmWgt=   1.0078250   1.0078250   1.0078250   1.0078250   1.0078250
 NucSpn=           1           1           1           1           1
 AtZEff=  -0.0000000  -0.0000000  -0.0000000  -0.0000000  -0.0000000
 NQMom=    0.0000000   0.0000000   0.0000000   0.0000000   0.0000000
 NMagM=    2.7928460   2.7928460   2.7928460   2.7928460   2.7928460
 AtZNuc=   1.0000000   1.0000000   1.0000000   1.0000000   1.0000000
 Leave Link  101 at Fri Aug  4 08:50:08 2023, MaxMem=   104857600 cpu:               0.2 elap:               0.4
 (Enter /private/chem/g16E03/g16/l103.exe)

 GradGradGradGradGradGradGradGradGradGradGradGradGradGradGradGradGradGrad
 Berny optimization.
 Initialization pass.
                           ----------------------------
                           !    Initial Parameters    !
                           ! (Angstroms and Degrees)  !
 --------------------------                            --------------------------
 ! Name  Definition              Value          Derivative Info.                !
 --------------------------------------------------------------------------------
 ! R1    R(1,2)                  1.47           estimate D2E/DX2                !
 ! R2    R(1,21)                 1.0            estimate D2E/DX2                !
 ! R3    R(1,22)                 1.0            estimate D2E/DX2                !
 ! R4    R(1,23)                 1.0            estimate D2E/DX2                !
 ! R5    R(2,3)                  1.5433         estimate D2E/DX2                !
 ! R6    R(2,6)                  1.4929         estimate D2E/DX2                !
 ! R7    R(2,24)                 1.07           estimate D2E/DX2                !
 ! R8    R(3,4)                  1.4636         estimate D2E/DX2                !
 ! R9    R(3,25)                 1.07           estimate D2E/DX2                !
 ! R10   R(3,26)                 1.07           estimate D2E/DX2                !
 ! R11   R(4,5)                  1.4623         estimate D2E/DX2                !
 ! R12   R(4,12)                 1.4643         estimate D2E/DX2                !
 ! R13   R(5,6)                  1.5271         estimate D2E/DX2                !
 ! R14   R(5,9)                  1.5159         estimate D2E/DX2                !
 ! R15   R(5,27)                 1.07           estimate D2E/DX2                !
 ! R16   R(6,7)                  1.44           estimate D2E/DX2                !
 ! R17   R(6,28)                 1.07           estimate D2E/DX2                !
 ! R18   R(7,8)                  1.4768         estimate D2E/DX2                !
 ! R19   R(8,9)                  1.5011         estimate D2E/DX2                !
 ! R20   R(8,29)                 1.07           estimate D2E/DX2                !
 ! R21   R(8,30)                 1.07           estimate D2E/DX2                !
 ! R22   R(9,10)                 1.43           estimate D2E/DX2                !
 ! R23   R(9,31)                 1.07           estimate D2E/DX2                !
 ! R24   R(10,11)                1.67           estimate D2E/DX2                !
 ! R25   R(11,12)                1.4696         estimate D2E/DX2                !
 ! R26   R(11,13)                1.4696         estimate D2E/DX2                !
 ! R27   R(11,14)                1.78           estimate D2E/DX2                !
 ! R28   R(14,15)                1.3552         estimate D2E/DX2                !
 ! R29   R(14,20)                1.54           estimate D2E/DX2                !
 ! R30   R(15,16)                1.54           estimate D2E/DX2                !
 ! R31   R(15,32)                1.07           estimate D2E/DX2                !
 ! R32   R(16,17)                1.3552         estimate D2E/DX2                !
 ! R33   R(16,33)                1.07           estimate D2E/DX2                !
 ! R34   R(17,18)                1.91           estimate D2E/DX2                !
 ! R35   R(17,19)                1.54           estimate D2E/DX2                !
 ! R36   R(19,20)                1.3552         estimate D2E/DX2                !
 ! R37   R(19,34)                1.07           estimate D2E/DX2                !
 ! R38   R(20,35)                1.07           estimate D2E/DX2                !
 ! A1    A(2,1,21)             109.4712         estimate D2E/DX2                !
 ! A2    A(2,1,22)             109.4712         estimate D2E/DX2                !
 ! A3    A(2,1,23)             109.4712         estimate D2E/DX2                !
 ! A4    A(21,1,22)            109.4712         estimate D2E/DX2                !
 ! A5    A(21,1,23)            109.4712         estimate D2E/DX2                !
 ! A6    A(22,1,23)            109.4712         estimate D2E/DX2                !
 ! A7    A(1,2,3)              110.6525         estimate D2E/DX2                !
 ! A8    A(1,2,6)              112.1072         estimate D2E/DX2                !
 ! A9    A(1,2,24)             107.4134         estimate D2E/DX2                !
 ! A10   A(3,2,6)               97.6571         estimate D2E/DX2                !
 ! A11   A(3,2,24)             115.1643         estimate D2E/DX2                !
 ! A12   A(6,2,24)             113.7487         estimate D2E/DX2                !
 ! A13   A(2,3,4)              101.806          estimate D2E/DX2                !
 ! A14   A(2,3,25)             112.8418         estimate D2E/DX2                !
 ! A15   A(2,3,26)             110.4108         estimate D2E/DX2                !
 ! A16   A(4,3,25)             112.4826         estimate D2E/DX2                !
 ! A17   A(4,3,26)             110.8473         estimate D2E/DX2                !
 ! A18   A(25,3,26)            108.3772         estimate D2E/DX2                !
 ! A19   A(3,4,5)              101.3682         estimate D2E/DX2                !
 ! A20   A(3,4,12)             104.4958         estimate D2E/DX2                !
 ! A21   A(5,4,12)             127.6728         estimate D2E/DX2                !
 ! A22   A(4,5,6)              109.2381         estimate D2E/DX2                !
 ! A23   A(4,5,9)              111.6457         estimate D2E/DX2                !
 ! A24   A(4,5,27)             108.592          estimate D2E/DX2                !
 ! A25   A(6,5,9)              101.1362         estimate D2E/DX2                !
 ! A26   A(6,5,27)             110.9143         estimate D2E/DX2                !
 ! A27   A(9,5,27)             115.0624         estimate D2E/DX2                !
 ! A28   A(2,6,5)              100.7281         estimate D2E/DX2                !
 ! A29   A(2,6,7)              115.7441         estimate D2E/DX2                !
 ! A30   A(2,6,28)             115.3927         estimate D2E/DX2                !
 ! A31   A(5,6,7)              106.181          estimate D2E/DX2                !
 ! A32   A(5,6,28)             114.8933         estimate D2E/DX2                !
 ! A33   A(7,6,28)             103.9552         estimate D2E/DX2                !
 ! A34   A(6,7,8)               95.6796         estimate D2E/DX2                !
 ! A35   A(7,8,9)               98.5342         estimate D2E/DX2                !
 ! A36   A(7,8,29)             113.5062         estimate D2E/DX2                !
 ! A37   A(7,8,30)             111.7221         estimate D2E/DX2                !
 ! A38   A(9,8,29)             112.7004         estimate D2E/DX2                !
 ! A39   A(9,8,30)             112.4115         estimate D2E/DX2                !
 ! A40   A(29,8,30)            107.885          estimate D2E/DX2                !
 ! A41   A(5,9,8)              100.6244         estimate D2E/DX2                !
 ! A42   A(5,9,10)             110.019          estimate D2E/DX2                !
 ! A43   A(5,9,31)             113.7466         estimate D2E/DX2                !
 ! A44   A(8,9,10)             105.4101         estimate D2E/DX2                !
 ! A45   A(8,9,31)             118.3134         estimate D2E/DX2                !
 ! A46   A(10,9,31)            108.204          estimate D2E/DX2                !
 ! A47   A(9,10,11)            109.4712         estimate D2E/DX2                !
 ! A48   A(10,11,12)           109.4712         estimate D2E/DX2                !
 ! A49   A(10,11,13)           109.4712         estimate D2E/DX2                !
 ! A50   A(10,11,14)           109.4712         estimate D2E/DX2                !
 ! A51   A(12,11,13)           109.4712         estimate D2E/DX2                !
 ! A52   A(12,11,14)           109.4712         estimate D2E/DX2                !
 ! A53   A(13,11,14)           109.4712         estimate D2E/DX2                !
 ! A54   A(4,12,11)            112.6608         estimate D2E/DX2                !
 ! A55   A(11,14,15)           120.0            estimate D2E/DX2                !
 ! A56   A(11,14,20)           120.0            estimate D2E/DX2                !
 ! A57   A(15,14,20)           120.0            estimate D2E/DX2                !
 ! A58   A(14,15,16)           120.0            estimate D2E/DX2                !
 ! A59   A(14,15,32)           120.0            estimate D2E/DX2                !
 ! A60   A(16,15,32)           120.0            estimate D2E/DX2                !
 ! A61   A(15,16,17)           120.0            estimate D2E/DX2                !
 ! A62   A(15,16,33)           120.0            estimate D2E/DX2                !
 ! A63   A(17,16,33)           120.0            estimate D2E/DX2                !
 ! A64   A(16,17,18)           120.0            estimate D2E/DX2                !
 ! A65   A(16,17,19)           120.0            estimate D2E/DX2                !
 ! A66   A(18,17,19)           120.0            estimate D2E/DX2                !
 ! A67   A(17,19,20)           120.0            estimate D2E/DX2                !
 ! A68   A(17,19,34)           120.0            estimate D2E/DX2                !
 ! A69   A(20,19,34)           120.0            estimate D2E/DX2                !
 ! A70   A(14,20,19)           120.0            estimate D2E/DX2                !
 ! A71   A(14,20,35)           120.0            estimate D2E/DX2                !
 ! A72   A(19,20,35)           120.0            estimate D2E/DX2                !
 ! D1    D(21,1,2,3)           -53.7975         estimate D2E/DX2                !
 ! D2    D(21,1,2,6)            54.0691         estimate D2E/DX2                !
 ! D3    D(21,1,2,24)          179.7283         estimate D2E/DX2                !
 ! D4    D(22,1,2,3)            66.2025         estimate D2E/DX2                !
 ! D5    D(22,1,2,6)           174.0691         estimate D2E/DX2                !
 ! D6    D(22,1,2,24)          -60.2717         estimate D2E/DX2                !
 ! D7    D(23,1,2,3)          -173.7975         estimate D2E/DX2                !
 ! D8    D(23,1,2,6)           -65.9309         estimate D2E/DX2                !
 ! D9    D(23,1,2,24)           59.7283         estimate D2E/DX2                !
 ! D10   D(1,2,3,4)             62.7651         estimate D2E/DX2                !
 ! D11   D(1,2,3,25)           -58.0289         estimate D2E/DX2                !
 ! D12   D(1,2,3,26)          -179.4791         estimate D2E/DX2                !
 ! D13   D(6,2,3,4)            -54.395          estimate D2E/DX2                !
 ! D14   D(6,2,3,25)          -175.1891         estimate D2E/DX2                !
 ! D15   D(6,2,3,26)            63.3608         estimate D2E/DX2                !
 ! D16   D(24,2,3,4)          -175.2003         estimate D2E/DX2                !
 ! D17   D(24,2,3,25)           64.0057         estimate D2E/DX2                !
 ! D18   D(24,2,3,26)          -57.4444         estimate D2E/DX2                !
 ! D19   D(1,2,6,5)            -73.7814         estimate D2E/DX2                !
 ! D20   D(1,2,6,7)            172.2494         estimate D2E/DX2                !
 ! D21   D(1,2,6,28)            50.563          estimate D2E/DX2                !
 ! D22   D(3,2,6,5)             42.2411         estimate D2E/DX2                !
 ! D23   D(3,2,6,7)            -71.7281         estimate D2E/DX2                !
 ! D24   D(3,2,6,28)           166.5855         estimate D2E/DX2                !
 ! D25   D(24,2,6,5)           164.1038         estimate D2E/DX2                !
 ! D26   D(24,2,6,7)            50.1346         estimate D2E/DX2                !
 ! D27   D(24,2,6,28)          -71.5518         estimate D2E/DX2                !
 ! D28   D(2,3,4,5)             42.3147         estimate D2E/DX2                !
 ! D29   D(2,3,4,12)           176.4105         estimate D2E/DX2                !
 ! D30   D(25,3,4,5)           163.3591         estimate D2E/DX2                !
 ! D31   D(25,3,4,12)          -62.5451         estimate D2E/DX2                !
 ! D32   D(26,3,4,5)           -75.1268         estimate D2E/DX2                !
 ! D33   D(26,3,4,12)           58.969          estimate D2E/DX2                !
 ! D34   D(3,4,5,6)            -15.1657         estimate D2E/DX2                !
 ! D35   D(3,4,5,9)             95.8472         estimate D2E/DX2                !
 ! D36   D(3,4,5,27)          -136.2496         estimate D2E/DX2                !
 ! D37   D(12,4,5,6)          -133.7083         estimate D2E/DX2                !
 ! D38   D(12,4,5,9)           -22.6954         estimate D2E/DX2                !
 ! D39   D(12,4,5,27)          105.2078         estimate D2E/DX2                !
 ! D40   D(3,4,12,11)          -89.8528         estimate D2E/DX2                !
 ! D41   D(5,4,12,11)           27.3311         estimate D2E/DX2                !
 ! D42   D(4,5,6,2)            -18.5908         estimate D2E/DX2                !
 ! D43   D(4,5,6,7)            102.4261         estimate D2E/DX2                !
 ! D44   D(4,5,6,28)          -143.2761         estimate D2E/DX2                !
 ! D45   D(9,5,6,2)           -136.4225         estimate D2E/DX2                !
 ! D46   D(9,5,6,7)            -15.4056         estimate D2E/DX2                !
 ! D47   D(9,5,6,28)            98.8922         estimate D2E/DX2                !
 ! D48   D(27,5,6,2)           101.07           estimate D2E/DX2                !
 ! D49   D(27,5,6,7)          -137.9131         estimate D2E/DX2                !
 ! D50   D(27,5,6,28)          -23.6153         estimate D2E/DX2                !
 ! D51   D(4,5,9,8)           -137.8795         estimate D2E/DX2                !
 ! D52   D(4,5,9,10)           -27.019          estimate D2E/DX2                !
 ! D53   D(4,5,9,31)            94.5506         estimate D2E/DX2                !
 ! D54   D(6,5,9,8)            -21.813          estimate D2E/DX2                !
 ! D55   D(6,5,9,10)            89.0475         estimate D2E/DX2                !
 ! D56   D(6,5,9,31)          -149.3829         estimate D2E/DX2                !
 ! D57   D(27,5,9,8)            97.7703         estimate D2E/DX2                !
 ! D58   D(27,5,9,10)         -151.3692         estimate D2E/DX2                !
 ! D59   D(27,5,9,31)          -29.7996         estimate D2E/DX2                !
 ! D60   D(2,6,7,8)            157.3072         estimate D2E/DX2                !
 ! D61   D(5,6,7,8)             46.507          estimate D2E/DX2                !
 ! D62   D(28,6,7,8)           -75.0756         estimate D2E/DX2                !
 ! D63   D(6,7,8,9)            -60.0191         estimate D2E/DX2                !
 ! D64   D(6,7,8,29)          -179.4133         estimate D2E/DX2                !
 ! D65   D(6,7,8,30)            58.3257         estimate D2E/DX2                !
 ! D66   D(7,8,9,5)             51.3032         estimate D2E/DX2                !
 ! D67   D(7,8,9,10)           -63.0901         estimate D2E/DX2                !
 ! D68   D(7,8,9,31)           175.8065         estimate D2E/DX2                !
 ! D69   D(29,8,9,5)           171.3001         estimate D2E/DX2                !
 ! D70   D(29,8,9,10)           56.9068         estimate D2E/DX2                !
 ! D71   D(29,8,9,31)          -64.1966         estimate D2E/DX2                !
 ! D72   D(30,8,9,5)           -66.5179         estimate D2E/DX2                !
 ! D73   D(30,8,9,10)          179.0888         estimate D2E/DX2                !
 ! D74   D(30,8,9,31)           57.9854         estimate D2E/DX2                !
 ! D75   D(5,9,10,11)           65.7076         estimate D2E/DX2                !
 ! D76   D(8,9,10,11)          173.4039         estimate D2E/DX2                !
 ! D77   D(31,9,10,11)         -59.1115         estimate D2E/DX2                !
 ! D78   D(9,10,11,12)         -60.0            estimate D2E/DX2                !
 ! D79   D(9,10,11,13)          60.0            estimate D2E/DX2                !
 ! D80   D(9,10,11,14)         180.0            estimate D2E/DX2                !
 ! D81   D(10,11,12,4)          13.3596         estimate D2E/DX2                !
 ! D82   D(13,11,12,4)        -106.6404         estimate D2E/DX2                !
 ! D83   D(14,11,12,4)         133.3596         estimate D2E/DX2                !
 ! D84   D(10,11,14,15)       -120.0            estimate D2E/DX2                !
 ! D85   D(10,11,14,20)         60.0            estimate D2E/DX2                !
 ! D86   D(12,11,14,15)        120.0            estimate D2E/DX2                !
 ! D87   D(12,11,14,20)        -60.0            estimate D2E/DX2                !
 ! D88   D(13,11,14,15)          0.0            estimate D2E/DX2                !
 ! D89   D(13,11,14,20)       -180.0            estimate D2E/DX2                !
 ! D90   D(11,14,15,16)        180.0            estimate D2E/DX2                !
 ! D91   D(11,14,15,32)          0.0            estimate D2E/DX2                !
 ! D92   D(20,14,15,16)          0.0            estimate D2E/DX2                !
 ! D93   D(20,14,15,32)       -180.0            estimate D2E/DX2                !
 ! D94   D(11,14,20,19)        180.0            estimate D2E/DX2                !
 ! D95   D(11,14,20,35)          0.0            estimate D2E/DX2                !
 ! D96   D(15,14,20,19)          0.0            estimate D2E/DX2                !
 ! D97   D(15,14,20,35)        180.0            estimate D2E/DX2                !
 ! D98   D(14,15,16,17)          0.0            estimate D2E/DX2                !
 ! D99   D(14,15,16,33)        180.0            estimate D2E/DX2                !
 ! D100  D(32,15,16,17)        180.0            estimate D2E/DX2                !
 ! D101  D(32,15,16,33)          0.0            estimate D2E/DX2                !
 ! D102  D(15,16,17,18)        180.0            estimate D2E/DX2                !
 ! D103  D(15,16,17,19)          0.0            estimate D2E/DX2                !
 ! D104  D(33,16,17,18)          0.0            estimate D2E/DX2                !
 ! D105  D(33,16,17,19)        180.0            estimate D2E/DX2                !
 ! D106  D(16,17,19,20)          0.0            estimate D2E/DX2                !
 ! D107  D(16,17,19,34)       -180.0            estimate D2E/DX2                !
 ! D108  D(18,17,19,20)        180.0            estimate D2E/DX2                !
 ! D109  D(18,17,19,34)          0.0            estimate D2E/DX2                !
 ! D110  D(17,19,20,14)          0.0            estimate D2E/DX2                !
 ! D111  D(17,19,20,35)        180.0            estimate D2E/DX2                !
 ! D112  D(34,19,20,14)        180.0            estimate D2E/DX2                !
 ! D113  D(34,19,20,35)          0.0            estimate D2E/DX2                !
 --------------------------------------------------------------------------------
 Trust Radius=3.00D-01 FncErr=1.00D-07 GrdErr=1.00D-06 EigMax=2.50D+02 EigMin=1.00D-04
 Number of steps in this run=    210 maximum allowed number of steps=    210.
 GradGradGradGradGradGradGradGradGradGradGradGradGradGradGradGradGradGrad

 Leave Link  103 at Fri Aug  4 08:50:08 2023, MaxMem=   104857600 cpu:               0.0 elap:               0.0
 (Enter /private/chem/g16E03/g16/l202.exe)
                          Input orientation:                          
 ---------------------------------------------------------------------
 Center     Atomic      Atomic             Coordinates (Angstroms)
 Number     Number       Type             X           Y           Z
 ---------------------------------------------------------------------
      1          7           0        0.000000    0.000000    0.000000
      2          6           0        0.000000    0.000000    1.470000
      3          6           0        1.444156    0.000000    2.014334
      4          8           0        1.955587    1.273774    1.506466
      5          6           0        0.817656    2.159173    1.750553
      6          6           0       -0.424342    1.316410    2.031825
      7          8           0       -0.620221    1.353927    3.457929
      8          6           0       -0.435524    2.812902    3.592486
      9          6           0        0.964251    2.910376    3.059078
     10          8           0        1.770727    2.156948    3.968386
     11         16           0        3.327011    2.047310    3.372684
     12          8           0        3.305046    1.375997    2.065557
     13          8           0        3.889695    3.396433    3.221104
     14          6           0        4.330877    1.109475    4.504550
     15          6           0        5.423662    1.676624    5.070880
     16          6           0        6.292175    0.865239    6.050135
     17          6           0        5.963681   -0.415928    6.345549
     18         35           0        7.040863   -1.422255    7.560079
     19          6           0        4.721880   -1.060415    5.701992
     20          6           0        3.957588   -0.346396    4.840248
     21          1           0        0.556862    0.760785   -0.333333
     22          1           0        0.380428   -0.862649   -0.333333
     23          1           0       -0.937290    0.101864   -0.333333
     24          1           0       -0.606922   -0.820981    1.790213
     25          1           0        2.016979   -0.836516    1.672259
     26          1           0        1.439658   -0.009117    3.084286
     27          1           0        0.673710    2.775456    0.887782
     28          1           0       -1.336207    1.711909    1.635616
     29          1           0       -0.518621    3.162440    4.600364
     30          1           0       -1.137929    3.357602    2.996811
     31          1           0        1.399971    3.881736    2.951797
     32          1           0        5.683025    2.688171    4.837635
     33          1           0        7.154985    1.313032    6.497281
     34          1           0        4.462517   -2.071962    5.935237
     35          1           0        3.094778   -0.794189    4.393101
 ---------------------------------------------------------------------
                    Distance matrix (angstroms):
                    1          2          3          4          5
     1  N    0.000000
     2  C    1.470000   0.000000
     3  C    2.478533   1.543336   0.000000
     4  O    2.777816   2.334128   1.463554   0.000000
     5  C    2.897417   2.325790   2.263650   1.462326   0.000000
     6  C    2.457908   1.492866   2.285722   2.437598   1.527063
     7  O    3.764979   2.483879   2.859850   3.232557   2.372982
     8  C    4.583455   3.550641   3.733120   3.526728   2.321753
     9  C    4.331054   3.453294   3.129232   2.464106   1.515927
    10  O    4.851390   3.745642   2.928719   2.622064   2.413946
    11  S    5.160957   4.345191   3.095437   2.441706   2.990098
    12  O    4.133186   3.629241   2.314931   1.464265   2.626729
    13  O    6.086131   5.452692   4.355768   3.344613   3.623639
    14  C    6.346526   5.403325   3.970550   3.828511   4.585748
    15  C    7.611898   6.722612   5.290558   4.989476   5.698483
    16  C    8.771786   7.830564   6.367073   6.294268   7.080327
    17  C    8.718055   7.714238   6.273637   6.506660   7.363878
    18  Br  10.428392   9.417305   8.006324   8.353133   9.236099
    19  C    7.478860   6.428871   5.046461   5.541051   6.420481
    20  C    6.261828   5.209709   3.797778   4.212726   5.067866
    21  H    1.000000   2.034920   2.622523   2.367372   2.523110
    22  H    1.000000   2.034920   2.717945   3.229596   3.696642
    23  H    1.000000   2.034920   3.345625   3.623117   3.413933
    24  H    2.060880   1.070000   2.220622   3.321892   3.303379
    25  H    2.750348   2.192914   1.070000   2.117683   3.227795
    26  H    3.403750   2.163011   1.070000   2.097977   2.620536
    27  H    2.990853   2.914794   3.092873   2.069065   1.070000
    28  H    2.718699   2.177961   3.287017   3.323335   2.202812
    29  H    5.606545   4.479863   4.532226   4.388733   3.303575
    30  H    4.642116   3.859990   4.348093   4.016629   2.610307
    31  H    5.073549   4.384463   3.993578   3.033011   2.179289
    32  H    7.932575   7.131900   5.758932   5.195286   5.786340
    33  H    9.753591   8.842591   7.377970   7.207185   7.962985
    34  H    7.709353   6.644202   5.364420   6.090374   6.978473
    35  H    5.432101   4.330463   3.002303   3.729194   4.570634
                    6          7          8          9         10
     6  C    0.000000
     7  O    1.439982   0.000000
     8  C    2.162239   1.476762   0.000000
     9  C    2.350355   2.256583   1.501131   0.000000
    10  O    3.045505   2.573333   2.332193   1.430000   0.000000
    11  S    4.050279   4.008577   3.845922   2.534929   1.670000
    12  O    3.730017   4.164963   4.288132   2.969971   2.566082
    13  O    4.934754   4.956537   4.380177   2.969971   2.566082
    14  C    5.363701   5.066413   5.143160   4.082499   2.817629
    15  C    6.600360   6.263726   6.148726   5.045378   3.845794
    16  C    7.839768   7.398619   7.422625   6.443274   5.142536
    17  C    7.900382   7.403952   7.678185   6.845399   5.463648
    18  Br   9.684584   9.122885   9.464392   8.715269   7.313363
    19  C    6.753001   6.277173   6.786119   6.072228   4.697458
    20  C    5.463833   5.075258   5.553153   4.768564   3.436457
    21  H    2.620201   4.013853   4.539612   4.036727   4.682684
    22  H    3.315106   4.504240   5.439441   5.107350   5.436514
    23  H    2.707806   4.005230   4.797245   4.797088   5.482839
    24  H    2.158738   2.740744   4.059886   4.242833   4.389273
    25  H    3.274817   3.865422   4.797947   4.131671   3.780696
    26  H    2.517775   2.498119   3.426130   2.958055   2.362854
    27  H    2.154848   3.209464   2.923564   2.194799   3.328081
    28  H    1.070000   1.990380   2.419247   2.958830   3.910616
    29  H    3.164508   2.141541   1.070000   2.153604   2.579056
    30  H    2.367883   2.120227   1.070000   2.150128   3.293298
    31  H    3.279537   3.275234   2.218542   1.070000   2.036126
    32  H    6.859608   6.588983   6.245205   5.047719   4.042754
    33  H    8.796960   8.348243   8.264579   7.259334   6.008139
    34  H    7.113303   6.611202   7.303505   6.733042   5.384971
    35  H    4.734391   4.392058   5.110296   4.476893   3.262316
                   11         12         13         14         15
    11  S    0.000000
    12  O    1.469600   0.000000
    13  O    1.469600   2.399847   0.000000
    14  C    1.780000   2.659333   2.659333   0.000000
    15  C    2.723458   3.689292   2.955075   1.355200   0.000000
    16  C    4.166321   5.006064   4.492468   2.509019   1.540000
    17  C    4.675200   5.347679   5.347679   2.895200   2.509019
    18  Br   6.585200   7.209461   7.209461   4.805200   4.291213
    19  C    4.126656   4.600781   5.168252   2.509019   2.895200
    20  C    2.877707   3.330370   4.078604   1.540000   2.509019
    21  H    4.802440   3.699416   5.539715   6.145721   7.330077
    22  H    5.557407   4.395407   6.564203   6.549842   7.815858
    23  H    5.975247   5.037411   6.840175   7.223155   8.493945
    24  H    5.119290   4.495111   6.328791   5.956185   7.305392
    25  H    3.595007   2.590177   4.880968   4.142810   5.428811
    26  H    2.806095   2.536932   4.197520   3.409919   4.760312
    27  H    3.707417   3.204617   4.021512   5.406604   6.424000
    28  H    4.987535   4.673213   5.715020   6.380403   7.582751
    29  H    4.188031   4.923115   4.624972   5.267018   6.143270
    30  H    4.668387   4.953183   5.032775   6.102064   7.083920
    31  H    2.693650   3.270086   2.550838   4.322809   5.054020
    32  H    2.847383   3.880851   2.516116   2.105120   1.070000
    33  H    4.995564   5.870790   5.073068   3.462370   2.272510
    34  H    4.982414   5.310611   6.131720   3.490808   3.965200
    35  H    3.028085   3.189261   4.423436   2.272510   3.462370
                   16         17         18         19         20
    16  C    0.000000
    17  C    1.355200   0.000000
    18  Br   2.841320   1.910000   0.000000
    19  C    2.509019   1.540000   2.993510   0.000000
    20  C    2.895200   2.509019   4.249887   1.355200   0.000000
    21  H    8.582155   8.673282  10.445760   7.555746   6.289414
    22  H    8.870345   8.716636  10.343139   7.437235   6.310985
    23  H    9.674532   9.617639  11.326068   8.354774   7.136295
    24  H    8.281776   8.005497   9.599037   6.614792   5.510236
    25  H    6.351305   6.131313   7.762018   4.858536   3.747310
    26  H    5.753928   5.591791   7.307748   4.327886   3.088225
    27  H    7.865492   8.243539  10.133162   7.367374   6.012637
    28  H    8.854210   8.944245  10.728353   7.805230   6.521545
    29  H    7.332524   7.607275   9.323365   6.819746   5.692620
    30  H    8.410773   8.711282  10.514899   7.821396   6.563700
    31  H    6.529365   7.128458   9.010453   6.559231   5.290062
    32  H    2.272510   3.462370   5.113808   3.965200   3.490808
    33  H    1.070000   2.105120   2.936727   3.490808   3.965200
    34  H    3.462370   2.272510   3.116103   1.070000   2.105120
    35  H    3.965200   3.490808   5.098608   2.105120   1.070000
                   21         22         23         24         25
    21  H    0.000000
    22  H    1.632993   0.000000
    23  H    1.632993   1.632993   0.000000
    24  H    2.892373   2.342231   2.338853   0.000000
    25  H    2.950544   2.588703   3.691973   2.626597   0.000000
    26  H    3.612782   3.678397   4.164411   2.553867   1.735427
    27  H    2.358745   3.848759   3.351796   3.922851   3.932699
    28  H    2.892251   3.667690   2.574518   2.640320   4.211849
    29  H    5.591600   6.430475   5.820978   4.875694   5.567290
    30  H    4.550344   5.586214   4.661538   4.381597   5.412809
    31  H    4.609040   5.860097   5.526508   5.243323   4.927455
    32  H    7.532017   8.213694   8.789566   7.820765   5.990235
    33  H    9.513017   9.863342  10.658759   9.325112   7.368888
    34  H    7.910346   7.577655   8.554438   6.666738   5.067540
    35  H    5.585530   5.450832   6.276915   4.525299   2.926846
                   26         27         28         29         30
    26  H    0.000000
    27  H    3.628382   0.000000
    28  H    3.572954   2.393775   0.000000
    29  H    4.023944   3.918505   3.400326   0.000000
    30  H    4.241038   2.840587   2.144870   1.730033   0.000000
    31  H    3.893310   2.451829   3.731909   2.629859   2.591849
    32  H    5.325013   6.379827   7.776608   6.224278   7.096632
    33  H    6.786869   8.695521   9.792611   8.118056   9.230709
    34  H    4.639066   7.957972   8.150437   7.347965   8.335437
    35  H    2.251391   5.557985   5.789463   5.362325   6.091207
                   31         32         33         34         35
    31  H    0.000000
    32  H    4.829652   0.000000
    33  H    7.231106   2.610000   0.000000
    34  H    7.329845   5.035200   4.361590   0.000000
    35  H    5.178224   4.361590   5.035200   2.425200   0.000000
 Stoichiometry    C12H15BrNO5S(1+)
 Framework group  C1[X(C12H15BrNO5S)]
 Deg. of freedom    99
 Full point group                 C1      NOp   1
 Largest Abelian subgroup         C1      NOp   1
 Largest concise Abelian subgroup C1      NOp   1
                         Standard orientation:                         
 ---------------------------------------------------------------------
 Center     Atomic      Atomic             Coordinates (Angstroms)
 Number     Number       Type             X           Y           Z
 ---------------------------------------------------------------------
      1          7           0       -4.672106   -2.115869   -1.170111
      2          6           0       -3.775011   -1.909548   -0.024009
      3          6           0       -2.374940   -1.468950   -0.501044
      4          8           0       -2.668742   -0.191687   -1.152403
      5          6           0       -3.612882    0.403322   -0.207437
      6          6           0       -4.120088   -0.677315    0.744869
      7          8           0       -3.405287   -0.490632    1.980895
      8          6           0       -3.601280    0.971722    2.043636
      9          6           0       -2.919444    1.343186    0.758914
     10          8           0       -1.554027    0.952828    0.926711
     11         16           0       -0.735610    1.156720   -0.514650
     12          8           0       -1.358744    0.324974   -1.553700
     13          8           0       -0.795497    2.569059   -0.916441
     14          6           0        0.964001    0.670819   -0.305783
     15          6           0        1.956474    1.568906   -0.517922
     16          6           0        3.426923    1.148520   -0.337217
     17          6           0        3.728446   -0.119507    0.033942
     18         35           0        5.552185   -0.640895    0.258062
     19          6           0        2.600635   -1.140061    0.275009
     20          6           0        1.306639   -0.770121    0.115988
     21          1           0       -4.679995   -1.293811   -1.739460
     22          1           0       -4.349032   -2.892655   -1.710692
     23          1           0       -5.597561   -2.301497   -0.839844
     24          1           0       -3.795037   -2.803706    0.563340
     25          1           0       -1.922362   -2.173423   -1.167221
     26          1           0       -1.722717   -1.328641    0.335508
     27          1           0       -4.421010    0.835985   -0.759371
     28          1           0       -5.148573   -0.584216    1.024961
     29          1           0       -3.146998    1.426889    2.898826
     30          1           0       -4.639015    1.232498    2.044944
     31          1           0       -2.938810    2.368035    0.451979
     32          1           0        1.718407    2.570079   -0.810971
     33          1           0        4.210532    1.857606   -0.504712
     34          1           0        2.838702   -2.141233    0.568058
     35          1           0        0.523031   -1.479207    0.283483
 ---------------------------------------------------------------------
 Rotational constants (GHZ):           0.6438851           0.1025186           0.0980567
 Leave Link  202 at Fri Aug  4 08:50:08 2023, MaxMem=   104857600 cpu:               0.0 elap:               0.0
 (Enter /private/chem/g16E03/g16/l301.exe)
 Standard basis: 6-31+G(d,p) (6D, 7F)
 Ernie: Thresh=  0.10000D-02 Tol=  0.10000D-05 Strict=F.
 There are   474 symmetry adapted cartesian basis functions of A   symmetry.
 There are   474 symmetry adapted basis functions of A   symmetry.
   474 basis functions,   824 primitive gaussians,   474 cartesian basis functions
    92 alpha electrons       92 beta electrons
       nuclear repulsion energy      2275.7458046335 Hartrees.
 IExCor= 4336 DFT=T Ex+Corr=M062X ExCW=0 ScaHFX=  0.540000
 ScaDFX=  1.000000  1.000000  1.000000  1.000000 ScalE2=  1.000000  1.000000
 IRadAn=      5 IRanWt=     -1 IRanGd=            0 ICorTp=0 IEmpDi=  4
 NAtoms=   35 NActive=   35 NUniq=   35 SFac= 1.00D+00 NAtFMM=   60 NAOKFM=F Big=F
 Integral buffers will be    131072 words long.
 Raffenetti 2 integral format.
 Two-electron integral symmetry is turned on.
 ------------------------------------------------------------------------------
 Polarizable Continuum Model (PCM)
 =================================
 Model                : PCM.
 Atomic radii         : SMD-Coulomb.
 Polarization charges : Total charges.
 Charge compensation  : None.
 Solution method      : On-the-fly selection.
 Cavity type          : VdW (van der Waals Surface) (Alpha=1.000).
 Cavity algorithm     : GePol (No added spheres)
                        Default sphere list used, NSphG=   35.
                        Lebedev-Laikov grids with approx.  5.0 points / Ang**2.
                        Smoothing algorithm: York/Karplus (Gamma=1.0000).
                        Polarization charges: spherical gaussians, with
                                              point-specific exponents (IZeta= 3).
                        Self-potential: point-specific (ISelfS= 7).
                        Self-field    : sphere-specific E.n sum rule (ISelfD= 2).
 1st derivatives      : Analytical E(r).r(x)/FMM algorithm (CHGder, D1EAlg=3).
                        Cavity 1st derivative terms included.
 Solvent              : Water, Eps=  78.355300 Eps(inf)=   1.777849
 ------------------------------------------------------------------------------
 GePol: Number of generator spheres                  =      35
 GePol: Total number of spheres                      =      35
 GePol: Number of exposed spheres                    =      35 (100.00%)
 GePol: Number of points                             =    2570
 GePol: Average weight of points                     =       0.13
 GePol: Minimum weight of points                     =   0.25D-11
 GePol: Maximum weight of points                     =    0.22025
 GePol: Number of points with low weight             =     140
 GePol: Fraction of low-weight points (<1% of avg)   =       5.45%
 GePol: Cavity surface area                          =    329.705 Ang**2
 GePol: Cavity volume                                =    349.654 Ang**3
 ------------------------------------------------------------------------------
 Atomic radii for non-electrostatic terms: SMD-CDS.
 ------------------------------------------------------------------------------
 PCM non-electrostatic energy =         0.0075349167 Hartrees.
 Nuclear repulsion after PCM non-electrostatic terms =     2275.7533395502 Hartrees.
 Leave Link  301 at Fri Aug  4 08:50:08 2023, MaxMem=   104857600 cpu:               0.1 elap:               0.2
 (Enter /private/chem/g16E03/g16/l302.exe)
 NPDir=0 NMtPBC=     1 NCelOv=     1 NCel=       1 NClECP=     1 NCelD=      1
         NCelK=      1 NCelE2=     1 NClLst=     1 CellRange=     0.0.
 One-electron integrals computed using PRISM.
 One-electron integral symmetry used in STVInt
 NBasis=   474 RedAO= T EigKep=  1.16D-06  NBF=   474
 NBsUse=   474 1.00D-06 EigRej= -1.00D+00 NBFU=   474
 Precomputing XC quadrature grid using
 IXCGrd= 4 IRadAn=           5 IRanWt=          -1 IRanGd=           0 AccXCQ= 0.00D+00.
 Generated NRdTot=       0 NPtTot=           0 NUsed=           0 NTot=          32
 NSgBfM=   469   469   469   469   469 MxSgAt=    35 MxSgA2=    35.
 Leave Link  302 at Fri Aug  4 08:50:10 2023, MaxMem=   104857600 cpu:               2.0 elap:               2.0
 (Enter /private/chem/g16E03/g16/l303.exe)
 DipDrv:  MaxL=1.
 Leave Link  303 at Fri Aug  4 08:50:10 2023, MaxMem=   104857600 cpu:               0.1 elap:               0.1
 (Enter /private/chem/g16E03/g16/l401.exe)
 ExpMin= 3.50D-02 ExpMax= 5.74D+05 ExpMxC= 5.74D+03 IAcc=3 IRadAn=         5 AccDes= 0.00D+00
 Harris functional with IExCor= 1009 and IRadAn=       5 diagonalized for initial guess.
 HarFok:  IExCor= 1009 AccDes= 0.00D+00 IRadAn=         5 IDoV= 1 UseB2=F ITyADJ=14
 ICtDFT=  3500011 ScaDFX=  1.000000  1.000000  1.000000  1.000000
 FoFCou: FMM=F IPFlag=           0 FMFlag=      100000 FMFlg1=           0
         NFxFlg=           0 DoJE=T BraDBF=F KetDBF=T FulRan=T
         wScrn=  0.000000 ICntrl=       500 IOpCl=  0 I1Cent=   200000004 NGrid=           0
         NMat0=    1 NMatS0=      1 NMatT0=    0 NMatD0=    1 NMtDS0=    0 NMtDT0=    0
 Petite list used in FoFCou.
 Harris En= -3865.14872546936    
 JPrj=0 DoOrth=F DoCkMO=F.
 Leave Link  401 at Fri Aug  4 08:50:45 2023, MaxMem=   104857600 cpu:              34.7 elap:              34.8
 (Enter /private/chem/g16E03/g16/l502.exe)
 Integral symmetry usage will be decided dynamically.
 Closed shell SCF:
 Using DIIS extrapolation, IDIIS=  1040.
 NGot=   104857600 LenX=   104400675 LenY=   104175525
 Requested convergence on RMS density matrix=1.00D-08 within 128 cycles.
 Requested convergence on MAX density matrix=1.00D-06.
 Requested convergence on             energy=1.00D-06.
 No special actions if energy rises.
 Fock matrices will be formed incrementally for  20 cycles.

 Cycle   1  Pass 1  IDiag  1:
 FoFJK:  IHMeth= 1 ICntrl=       0 DoSepK=F KAlg= 0 I1Cent=           0 FoldK=F
 IRaf= 810000000 NMat=       1 IRICut=       1 DoRegI=T DoRafI=F ISym2E= 0 IDoP0=0 IntGTp=1.
 FoFCou: FMM=F IPFlag=           0 FMFlag=      100000 FMFlg1=           0
         NFxFlg=           0 DoJE=F BraDBF=F KetDBF=F FulRan=T
         wScrn=  0.000000 ICntrl=         0 IOpCl=  0 I1Cent=           0 NGrid=           0
         NMat0=    1 NMatS0=      1 NMatT0=    0 NMatD0=    1 NMtDS0=    0 NMtDT0=    0
 Symmetry not used in FoFCou.
 Inv3:  Mode=1 IEnd=    19814700.
 Iteration    1 A*A^-1 deviation from unit magnitude is 8.88D-15 for   2560.
 Iteration    1 A*A^-1 deviation from orthogonality  is 2.74D-15 for   2560   2299.
 Iteration    1 A^-1*A deviation from unit magnitude is 8.88D-15 for   2560.
 Iteration    1 A^-1*A deviation from orthogonality  is 2.55D-15 for   2564   2305.
 E= -3865.75013885871    
 DIIS: error= 5.03D-02 at cycle   1 NSaved=   1.
 NSaved= 1 IEnMin= 1 EnMin= -3865.75013885871     IErMin= 1 ErrMin= 5.03D-02
 ErrMax= 5.03D-02  0.00D+00 EMaxC= 1.00D-01 BMatC= 8.04D-01 BMatP= 8.04D-01
 IDIUse=3 WtCom= 4.97D-01 WtEn= 5.03D-01
 Coeff-Com:  0.100D+01
 Coeff-En:   0.100D+01
 Coeff:      0.100D+01
 Gap=     0.303 Goal=   None    Shift=    0.000
 GapD=    0.303 DampG=1.000 DampE=0.500 DampFc=0.5000 IDamp=-1.
 Damping current iteration by 5.00D-01
 RMSDP=4.83D-02 MaxDP=7.16D+00              OVMax= 4.09D-01

 Cycle   2  Pass 1  IDiag  1:
 RMSU=  2.19D-02    CP:  1.08D+00
 E= -3865.95379161344     Delta-E=       -0.203652754722 Rises=F Damp=T
 DIIS: error= 2.35D-02 at cycle   2 NSaved=   2.
 NSaved= 2 IEnMin= 2 EnMin= -3865.95379161344     IErMin= 2 ErrMin= 2.35D-02
 ErrMax= 2.35D-02  0.00D+00 EMaxC= 1.00D-01 BMatC= 1.14D-01 BMatP= 8.04D-01
 IDIUse=3 WtCom= 7.65D-01 WtEn= 2.35D-01
 Coeff-Com: -0.208D-01 0.102D+01
 Coeff-En:   0.146D+00 0.854D+00
 Coeff:      0.184D-01 0.982D+00
 Gap=     0.261 Goal=   None    Shift=    0.000
 RMSDP=4.96D-02 MaxDP=1.01D+01 DE=-2.04D-01 OVMax= 2.76D-01

 Cycle   3  Pass 1  IDiag  1:
 RMSU=  1.76D-02    CP:  7.31D-01  6.69D-01
 E= -3866.20234715393     Delta-E=       -0.248555540498 Rises=F Damp=F
 DIIS: error= 4.41D-03 at cycle   3 NSaved=   3.
 NSaved= 3 IEnMin= 3 EnMin= -3866.20234715393     IErMin= 3 ErrMin= 4.41D-03
 ErrMax= 4.41D-03  0.00D+00 EMaxC= 1.00D-01 BMatC= 5.83D-02 BMatP= 1.14D-01
 IDIUse=3 WtCom= 9.56D-01 WtEn= 4.41D-02
 Coeff-Com: -0.117D+00 0.462D+00 0.655D+00
 Coeff-En:   0.000D+00 0.000D+00 0.100D+01
 Coeff:     -0.111D+00 0.442D+00 0.670D+00
 Gap=     0.162 Goal=   None    Shift=    0.000
 RMSDP=1.11D-02 MaxDP=1.57D+00 DE=-2.49D-01 OVMax= 2.02D-01

 Cycle   4  Pass 1  IDiag  1:
 RMSU=  5.96D-03    CP:  7.79D-01  7.95D-01  6.43D-01
 E= -3866.23184755548     Delta-E=       -0.029500401545 Rises=F Damp=F
 DIIS: error= 3.25D-03 at cycle   4 NSaved=   4.
 NSaved= 4 IEnMin= 4 EnMin= -3866.23184755548     IErMin= 4 ErrMin= 3.25D-03
 ErrMax= 3.25D-03  0.00D+00 EMaxC= 1.00D-01 BMatC= 3.05D-02 BMatP= 5.83D-02
 IDIUse=3 WtCom= 9.68D-01 WtEn= 3.25D-02
 Coeff-Com: -0.750D-01 0.197D+00 0.466D+00 0.412D+00
 Coeff-En:   0.000D+00 0.000D+00 0.309D+00 0.691D+00
 Coeff:     -0.726D-01 0.191D+00 0.461D+00 0.421D+00
 Gap=     0.156 Goal=   None    Shift=    0.000
 RMSDP=4.90D-03 MaxDP=7.02D-01 DE=-2.95D-02 OVMax= 6.61D-02

 Cycle   5  Pass 1  IDiag  1:
 RMSU=  1.87D-03    CP:  7.58D-01  7.66D-01  7.93D-01  6.14D-01
 E= -3866.25372168937     Delta-E=       -0.021874133888 Rises=F Damp=F
 DIIS: error= 5.39D-04 at cycle   5 NSaved=   5.
 NSaved= 5 IEnMin= 5 EnMin= -3866.25372168937     IErMin= 5 ErrMin= 5.39D-04
 ErrMax= 5.39D-04  0.00D+00 EMaxC= 1.00D-01 BMatC= 8.34D-04 BMatP= 3.05D-02
 IDIUse=3 WtCom= 9.95D-01 WtEn= 5.39D-03
 Coeff-Com: -0.226D-01 0.494D-01 0.175D+00 0.174D+00 0.624D+00
 Coeff-En:   0.000D+00 0.000D+00 0.000D+00 0.000D+00 0.100D+01
 Coeff:     -0.225D-01 0.491D-01 0.174D+00 0.173D+00 0.626D+00
 Gap=     0.163 Goal=   None    Shift=    0.000
 RMSDP=1.11D-03 MaxDP=1.77D-01 DE=-2.19D-02 OVMax= 2.71D-02

 Cycle   6  Pass 1  IDiag  1:
 RMSU=  7.57D-04    CP:  7.52D-01  7.54D-01  7.85D-01  6.54D-01  9.47D-01
 E= -3866.25462057035     Delta-E=       -0.000898880981 Rises=F Damp=F
 DIIS: error= 4.23D-04 at cycle   6 NSaved=   6.
 NSaved= 6 IEnMin= 6 EnMin= -3866.25462057035     IErMin= 6 ErrMin= 4.23D-04
 ErrMax= 4.23D-04  0.00D+00 EMaxC= 1.00D-01 BMatC= 4.09D-04 BMatP= 8.34D-04
 IDIUse=3 WtCom= 9.96D-01 WtEn= 4.23D-03
 Coeff-Com:  0.569D-02-0.171D-01-0.277D-02-0.401D-01 0.349D+00 0.705D+00
 Coeff-En:   0.000D+00 0.000D+00 0.000D+00 0.000D+00 0.000D+00 0.100D+01
 Coeff:      0.567D-02-0.170D-01-0.276D-02-0.399D-01 0.348D+00 0.706D+00
 Gap=     0.165 Goal=   None    Shift=    0.000
 RMSDP=1.07D-03 MaxDP=2.30D-01 DE=-8.99D-04 OVMax= 1.40D-02

 Cycle   7  Pass 1  IDiag  1:
 RMSU=  3.00D-04    CP:  7.45D-01  7.42D-01  7.99D-01  6.46D-01  1.07D+00
                    CP:  1.15D+00
 E= -3866.25508087621     Delta-E=       -0.000460305865 Rises=F Damp=F
 DIIS: error= 1.50D-04 at cycle   7 NSaved=   7.
 NSaved= 7 IEnMin= 7 EnMin= -3866.25508087621     IErMin= 7 ErrMin= 1.50D-04
 ErrMax= 1.50D-04  0.00D+00 EMaxC= 1.00D-01 BMatC= 6.30D-05 BMatP= 4.09D-04
 IDIUse=3 WtCom= 9.99D-01 WtEn= 1.50D-03
 Coeff-Com:  0.715D-02-0.160D-01-0.295D-01-0.699D-01 0.110D-01 0.156D+00
 Coeff-Com:  0.941D+00
 Coeff-En:   0.000D+00 0.000D+00 0.000D+00 0.000D+00 0.000D+00 0.000D+00
 Coeff-En:   0.100D+01
 Coeff:      0.714D-02-0.160D-01-0.294D-01-0.698D-01 0.110D-01 0.156D+00
 Coeff:      0.941D+00
 Gap=     0.165 Goal=   None    Shift=    0.000
 RMSDP=6.15D-04 MaxDP=1.20D-01 DE=-4.60D-04 OVMax= 1.21D-02

 Cycle   8  Pass 1  IDiag  1:
 RMSU=  1.38D-04    CP:  7.41D-01  7.36D-01  8.04D-01  6.43D-01  1.13D+00
                    CP:  1.47D+00  1.45D+00
 E= -3866.25520141109     Delta-E=       -0.000120534874 Rises=F Damp=F
 DIIS: error= 6.60D-05 at cycle   8 NSaved=   8.
 NSaved= 8 IEnMin= 8 EnMin= -3866.25520141109     IErMin= 8 ErrMin= 6.60D-05
 ErrMax= 6.60D-05  0.00D+00 EMaxC= 1.00D-01 BMatC= 1.40D-05 BMatP= 6.30D-05
 IDIUse=1 WtCom= 1.00D+00 WtEn= 0.00D+00
 Coeff-Com:  0.190D-02-0.340D-02-0.833D-02-0.277D-01-0.541D-01-0.976D-01
 Coeff-Com:  0.384D+00 0.805D+00
 Coeff:      0.190D-02-0.340D-02-0.833D-02-0.277D-01-0.541D-01-0.976D-01
 Coeff:      0.384D+00 0.805D+00
 Gap=     0.166 Goal=   None    Shift=    0.000
 RMSDP=3.11D-04 MaxDP=5.45D-02 DE=-1.21D-04 OVMax= 5.73D-03

 Cycle   9  Pass 1  IDiag  1:
 RMSU=  6.62D-05    CP:  7.40D-01  7.34D-01  8.07D-01  6.37D-01  1.14D+00
                    CP:  1.63D+00  1.77D+00  1.30D+00
 E= -3866.25522738888     Delta-E=       -0.000025977795 Rises=F Damp=F
 DIIS: error= 2.84D-05 at cycle   9 NSaved=   9.
 NSaved= 9 IEnMin= 9 EnMin= -3866.25522738888     IErMin= 9 ErrMin= 2.84D-05
 ErrMax= 2.84D-05  0.00D+00 EMaxC= 1.00D-01 BMatC= 2.18D-06 BMatP= 1.40D-05
 IDIUse=1 WtCom= 1.00D+00 WtEn= 0.00D+00
 Coeff-Com: -0.762D-03 0.200D-02 0.372D-02 0.965D-03-0.163D-01-0.708D-01
 Coeff-Com: -0.673D-01 0.227D+00 0.921D+00
 Coeff:     -0.762D-03 0.200D-02 0.372D-02 0.965D-03-0.163D-01-0.708D-01
 Coeff:     -0.673D-01 0.227D+00 0.921D+00
 Gap=     0.165 Goal=   None    Shift=    0.000
 RMSDP=1.48D-04 MaxDP=2.43D-02 DE=-2.60D-05 OVMax= 2.82D-03

 Cycle  10  Pass 1  IDiag  1:
 RMSU=  2.36D-05    CP:  7.39D-01  7.33D-01  8.08D-01  6.34D-01  1.15D+00
                    CP:  1.71D+00  1.94D+00  1.54D+00  1.32D+00
 E= -3866.25523193707     Delta-E=       -0.000004548190 Rises=F Damp=F
 DIIS: error= 1.02D-05 at cycle  10 NSaved=  10.
 NSaved=10 IEnMin=10 EnMin= -3866.25523193707     IErMin=10 ErrMin= 1.02D-05
 ErrMax= 1.02D-05  0.00D+00 EMaxC= 1.00D-01 BMatC= 3.66D-07 BMatP= 2.18D-06
 IDIUse=1 WtCom= 1.00D+00 WtEn= 0.00D+00
 Coeff-Com: -0.621D-03 0.139D-02 0.335D-02 0.385D-02 0.733D-02-0.107D-01
 Coeff-Com: -0.898D-01-0.536D-01 0.385D+00 0.754D+00
 Coeff:     -0.621D-03 0.139D-02 0.335D-02 0.385D-02 0.733D-02-0.107D-01
 Coeff:     -0.898D-01-0.536D-01 0.385D+00 0.754D+00
 Gap=     0.165 Goal=   None    Shift=    0.000
 RMSDP=2.93D-05 MaxDP=2.94D-03 DE=-4.55D-06 OVMax= 6.28D-04

 Cycle  11  Pass 1  IDiag  1:
 RMSU=  1.05D-05    CP:  7.39D-01  7.33D-01  8.08D-01  6.32D-01  1.14D+00
                    CP:  1.72D+00  1.99D+00  1.64D+00  1.44D+00  1.13D+00
 E= -3866.25523243673     Delta-E=       -0.000000499659 Rises=F Damp=F
 DIIS: error= 3.60D-06 at cycle  11 NSaved=  11.
 NSaved=11 IEnMin=11 EnMin= -3866.25523243673     IErMin=11 ErrMin= 3.60D-06
 ErrMax= 3.60D-06  0.00D+00 EMaxC= 1.00D-01 BMatC= 4.20D-08 BMatP= 3.66D-07
 IDIUse=1 WtCom= 1.00D+00 WtEn= 0.00D+00
 Coeff-Com: -0.187D-04-0.398D-05 0.121D-03-0.277D-04 0.434D-02 0.480D-02
 Coeff-Com: -0.130D-01-0.423D-01-0.175D-01 0.158D+00 0.906D+00
 Coeff:     -0.187D-04-0.398D-05 0.121D-03-0.277D-04 0.434D-02 0.480D-02
 Coeff:     -0.130D-01-0.423D-01-0.175D-01 0.158D+00 0.906D+00
 Gap=     0.165 Goal=   None    Shift=    0.000
 RMSDP=1.35D-05 MaxDP=2.28D-03 DE=-5.00D-07 OVMax= 2.36D-04

 Cycle  12  Pass 1  IDiag  1:
 RMSU=  4.06D-06    CP:  7.39D-01  7.33D-01  8.08D-01  6.32D-01  1.14D+00
                    CP:  1.72D+00  2.00D+00  1.66D+00  1.48D+00  1.24D+00
                    CP:  1.28D+00
 E= -3866.25523250104     Delta-E=       -0.000000064306 Rises=F Damp=F
 DIIS: error= 2.02D-06 at cycle  12 NSaved=  12.
 NSaved=12 IEnMin=12 EnMin= -3866.25523250104     IErMin=12 ErrMin= 2.02D-06
 ErrMax= 2.02D-06  0.00D+00 EMaxC= 1.00D-01 BMatC= 6.67D-09 BMatP= 4.20D-08
 IDIUse=1 WtCom= 1.00D+00 WtEn= 0.00D+00
 Coeff-Com:  0.537D-04-0.139D-03-0.273D-03-0.504D-03 0.165D-02 0.385D-02
 Coeff-Com:  0.469D-02-0.140D-01-0.512D-01-0.339D-01 0.439D+00 0.650D+00
 Coeff:      0.537D-04-0.139D-03-0.273D-03-0.504D-03 0.165D-02 0.385D-02
 Coeff:      0.469D-02-0.140D-01-0.512D-01-0.339D-01 0.439D+00 0.650D+00
 Gap=     0.165 Goal=   None    Shift=    0.000
 RMSDP=3.32D-06 MaxDP=3.00D-04 DE=-6.43D-08 OVMax= 7.23D-05

 Cycle  13  Pass 1  IDiag  1:
 RMSU=  1.62D-06    CP:  7.39D-01  7.33D-01  8.08D-01  6.32D-01  1.14D+00
                    CP:  1.72D+00  2.00D+00  1.66D+00  1.49D+00  1.30D+00
                    CP:  1.44D+00  1.09D+00
 E= -3866.25523251053     Delta-E=       -0.000000009491 Rises=F Damp=F
 DIIS: error= 5.18D-07 at cycle  13 NSaved=  13.
 NSaved=13 IEnMin=13 EnMin= -3866.25523251053     IErMin=13 ErrMin= 5.18D-07
 ErrMax= 5.18D-07  0.00D+00 EMaxC= 1.00D-01 BMatC= 6.51D-10 BMatP= 6.67D-09
 IDIUse=1 WtCom= 1.00D+00 WtEn= 0.00D+00
 Coeff-Com:  0.173D-04-0.357D-04-0.115D-03-0.215D-03-0.287D-03 0.207D-04
 Coeff-Com:  0.380D-02 0.326D-02-0.709D-02-0.446D-01-0.239D-01 0.166D+00
 Coeff-Com:  0.903D+00
 Coeff:      0.173D-04-0.357D-04-0.115D-03-0.215D-03-0.287D-03 0.207D-04
 Coeff:      0.380D-02 0.326D-02-0.709D-02-0.446D-01-0.239D-01 0.166D+00
 Coeff:      0.903D+00
 Gap=     0.165 Goal=   None    Shift=    0.000
 RMSDP=2.02D-06 MaxDP=1.96D-04 DE=-9.49D-09 OVMax= 4.64D-05

 Cycle  14  Pass 1  IDiag  1:
 RMSU=  7.13D-07    CP:  7.39D-01  7.33D-01  8.08D-01  6.32D-01  1.14D+00
                    CP:  1.72D+00  2.00D+00  1.66D+00  1.49D+00  1.32D+00
                    CP:  1.52D+00  1.29D+00  1.43D+00
 E= -3866.25523251247     Delta-E=       -0.000000001944 Rises=F Damp=F
 DIIS: error= 2.64D-07 at cycle  14 NSaved=  14.
 NSaved=14 IEnMin=14 EnMin= -3866.25523251247     IErMin=14 ErrMin= 2.64D-07
 ErrMax= 2.64D-07  0.00D+00 EMaxC= 1.00D-01 BMatC= 1.78D-10 BMatP= 6.51D-10
 IDIUse=1 WtCom= 1.00D+00 WtEn= 0.00D+00
 Coeff-Com: -0.242D-05 0.904D-05-0.267D-05-0.229D-04-0.276D-03-0.585D-03
 Coeff-Com:  0.777D-03 0.268D-02 0.518D-02-0.139D-01-0.700D-01-0.401D-01
 Coeff-Com:  0.324D+00 0.792D+00
 Coeff:     -0.242D-05 0.904D-05-0.267D-05-0.229D-04-0.276D-03-0.585D-03
 Coeff:      0.777D-03 0.268D-02 0.518D-02-0.139D-01-0.700D-01-0.401D-01
 Coeff:      0.324D+00 0.792D+00
 Gap=     0.165 Goal=   None    Shift=    0.000
 RMSDP=9.29D-07 MaxDP=8.17D-05 DE=-1.94D-09 OVMax= 2.09D-05

 Cycle  15  Pass 1  IDiag  1:
 RMSU=  2.48D-07    CP:  7.39D-01  7.33D-01  8.08D-01  6.32D-01  1.14D+00
                    CP:  1.72D+00  2.00D+00  1.66D+00  1.49D+00  1.33D+00
                    CP:  1.55D+00  1.36D+00  1.75D+00  1.41D+00
 E= -3866.25523251282     Delta-E=       -0.000000000352 Rises=F Damp=F
 DIIS: error= 1.61D-07 at cycle  15 NSaved=  15.
 NSaved=15 IEnMin=15 EnMin= -3866.25523251282     IErMin=15 ErrMin= 1.61D-07
 ErrMax= 1.61D-07  0.00D+00 EMaxC= 1.00D-01 BMatC= 4.26D-11 BMatP= 1.78D-10
 IDIUse=1 WtCom= 1.00D+00 WtEn= 0.00D+00
 Coeff-Com: -0.572D-05 0.129D-04 0.301D-04 0.353D-04 0.206D-04-0.296D-03
 Coeff-Com: -0.741D-03-0.264D-03 0.416D-02 0.759D-02-0.105D-01-0.619D-01
 Coeff-Com: -0.154D+00 0.293D+00 0.923D+00
 Coeff:     -0.572D-05 0.129D-04 0.301D-04 0.353D-04 0.206D-04-0.296D-03
 Coeff:     -0.741D-03-0.264D-03 0.416D-02 0.759D-02-0.105D-01-0.619D-01
 Coeff:     -0.154D+00 0.293D+00 0.923D+00
 Gap=     0.165 Goal=   None    Shift=    0.000
 RMSDP=6.76D-07 MaxDP=5.08D-05 DE=-3.52D-10 OVMax= 1.39D-05

 Cycle  16  Pass 1  IDiag  1:
 RMSU=  1.30D-07    CP:  7.39D-01  7.33D-01  8.08D-01  6.32D-01  1.14D+00
                    CP:  1.72D+00  2.00D+00  1.66D+00  1.49D+00  1.33D+00
                    CP:  1.57D+00  1.40D+00  1.98D+00  1.76D+00  1.33D+00
 E= -3866.25523251297     Delta-E=       -0.000000000145 Rises=F Damp=F
 DIIS: error= 4.81D-08 at cycle  16 NSaved=  16.
 NSaved=16 IEnMin=16 EnMin= -3866.25523251297     IErMin=16 ErrMin= 4.81D-08
 ErrMax= 4.81D-08  0.00D+00 EMaxC= 1.00D-01 BMatC= 5.81D-12 BMatP= 4.26D-11
 IDIUse=1 WtCom= 1.00D+00 WtEn= 0.00D+00
 Coeff-Com: -0.484D-06 0.701D-06 0.632D-05 0.550D-05 0.592D-04-0.922D-05
 Coeff-Com: -0.256D-03-0.568D-03 0.259D-03 0.415D-02 0.965D-02-0.136D-01
 Coeff-Com: -0.106D+00-0.363D-01 0.288D+00 0.854D+00
 Coeff:     -0.484D-06 0.701D-06 0.632D-05 0.550D-05 0.592D-04-0.922D-05
 Coeff:     -0.256D-03-0.568D-03 0.259D-03 0.415D-02 0.965D-02-0.136D-01
 Coeff:     -0.106D+00-0.363D-01 0.288D+00 0.854D+00
 Gap=     0.165 Goal=   None    Shift=    0.000
 RMSDP=2.58D-07 MaxDP=1.95D-05 DE=-1.45D-10 OVMax= 4.67D-06

 Cycle  17  Pass 1  IDiag  1:
 RMSU=  4.84D-08    CP:  7.39D-01  7.33D-01  8.08D-01  6.32D-01  1.14D+00
                    CP:  1.72D+00  2.00D+00  1.66D+00  1.49D+00  1.33D+00
                    CP:  1.57D+00  1.41D+00  2.06D+00  1.90D+00  1.58D+00
                    CP:  1.25D+00
 E= -3866.25523251301     Delta-E=       -0.000000000044 Rises=F Damp=F
 DIIS: error= 2.88D-08 at cycle  17 NSaved=  17.
 NSaved=17 IEnMin=17 EnMin= -3866.25523251301     IErMin=17 ErrMin= 2.88D-08
 ErrMax= 2.88D-08  0.00D+00 EMaxC= 1.00D-01 BMatC= 8.91D-13 BMatP= 5.81D-12
 IDIUse=1 WtCom= 1.00D+00 WtEn= 0.00D+00
 Coeff-Com:  0.404D-06-0.101D-05 0.109D-06-0.184D-05 0.270D-04 0.311D-04
 Coeff-Com: -0.243D-04-0.231D-03-0.356D-03 0.838D-03 0.594D-02 0.138D-02
 Coeff-Com: -0.273D-01-0.537D-01 0.621D-02 0.394D+00 0.673D+00
 Coeff:      0.404D-06-0.101D-05 0.109D-06-0.184D-05 0.270D-04 0.311D-04
 Coeff:     -0.243D-04-0.231D-03-0.356D-03 0.838D-03 0.594D-02 0.138D-02
 Coeff:     -0.273D-01-0.537D-01 0.621D-02 0.394D+00 0.673D+00
 Gap=     0.165 Goal=   None    Shift=    0.000
 RMSDP=7.57D-08 MaxDP=5.59D-06 DE=-4.37D-11 OVMax= 1.25D-06

 Cycle  18  Pass 1  IDiag  1:
 RMSU=  1.82D-08    CP:  7.39D-01  7.33D-01  8.08D-01  6.32D-01  1.14D+00
                    CP:  1.72D+00  2.00D+00  1.66D+00  1.49D+00  1.33D+00
                    CP:  1.57D+00  1.42D+00  2.09D+00  1.93D+00  1.60D+00
                    CP:  1.42D+00  1.24D+00
 E= -3866.25523251312     Delta-E=       -0.000000000111 Rises=F Damp=F
 DIIS: error= 1.09D-08 at cycle  18 NSaved=  18.
 NSaved=18 IEnMin=18 EnMin= -3866.25523251312     IErMin=18 ErrMin= 1.09D-08
 ErrMax= 1.09D-08  0.00D+00 EMaxC= 1.00D-01 BMatC= 9.67D-14 BMatP= 8.91D-13
 IDIUse=1 WtCom= 1.00D+00 WtEn= 0.00D+00
 Coeff-Com:  0.231D-06-0.515D-06-0.868D-06-0.162D-05 0.259D-06 0.137D-04
 Coeff-Com:  0.288D-04 0.398D-05-0.149D-03-0.407D-03 0.752D-03 0.251D-02
 Coeff-Com:  0.732D-02-0.129D-01-0.472D-01-0.705D-02 0.238D+00 0.819D+00
 Coeff:      0.231D-06-0.515D-06-0.868D-06-0.162D-05 0.259D-06 0.137D-04
 Coeff:      0.288D-04 0.398D-05-0.149D-03-0.407D-03 0.752D-03 0.251D-02
 Coeff:      0.732D-02-0.129D-01-0.472D-01-0.705D-02 0.238D+00 0.819D+00
 Gap=     0.165 Goal=   None    Shift=    0.000
 RMSDP=3.40D-08 MaxDP=2.99D-06 DE=-1.11D-10 OVMax= 5.20D-07

 Cycle  19  Pass 1  IDiag  1:
 RMSU=  8.21D-09    CP:  7.39D-01  7.33D-01  8.08D-01  6.32D-01  1.14D+00
                    CP:  1.72D+00  2.00D+00  1.66D+00  1.49D+00  1.33D+00
                    CP:  1.57D+00  1.42D+00  2.09D+00  1.94D+00  1.64D+00
                    CP:  1.50D+00  1.50D+00  1.17D+00
 E= -3866.25523251309     Delta-E=        0.000000000034 Rises=F Damp=F
 DIIS: error= 2.89D-09 at cycle  19 NSaved=  19.
 NSaved=19 IEnMin=18 EnMin= -3866.25523251312     IErMin=19 ErrMin= 2.89D-09
 ErrMax= 2.89D-09  0.00D+00 EMaxC= 1.00D-01 BMatC= 1.18D-14 BMatP= 9.67D-14
 IDIUse=1 WtCom= 1.00D+00 WtEn= 0.00D+00
 Coeff-Com:  0.905D-08-0.239D-08-0.154D-06-0.206D-06-0.276D-05 0.123D-05
 Coeff-Com:  0.105D-04 0.268D-04 0.170D-05-0.240D-03-0.436D-03 0.583D-03
 Coeff-Com:  0.556D-02 0.247D-02-0.177D-01-0.486D-01 0.116D-01 0.305D+00
 Coeff-Com:  0.742D+00
 Coeff:      0.905D-08-0.239D-08-0.154D-06-0.206D-06-0.276D-05 0.123D-05
 Coeff:      0.105D-04 0.268D-04 0.170D-05-0.240D-03-0.436D-03 0.583D-03
 Coeff:      0.556D-02 0.247D-02-0.177D-01-0.486D-01 0.116D-01 0.305D+00
 Coeff:      0.742D+00
 Gap=     0.165 Goal=   None    Shift=    0.000
 RMSDP=1.03D-08 MaxDP=8.26D-07 DE= 3.37D-11 OVMax= 1.43D-07

 Cycle  20  Pass 1  IDiag  1:
 RMSU=  1.45D-09    CP:  7.39D-01  7.33D-01  8.08D-01  6.32D-01  1.14D+00
                    CP:  1.72D+00  2.00D+00  1.66D+00  1.49D+00  1.33D+00
                    CP:  1.57D+00  1.42D+00  2.10D+00  1.95D+00  1.65D+00
                    CP:  1.52D+00  1.57D+00  1.35D+00  1.23D+00
 E= -3866.25523251303     Delta-E=        0.000000000055 Rises=F Damp=F
 DIIS: error= 6.22D-10 at cycle  20 NSaved=  20.
 NSaved=20 IEnMin=18 EnMin= -3866.25523251312     IErMin=20 ErrMin= 6.22D-10
 ErrMax= 6.22D-10  0.00D+00 EMaxC= 1.00D-01 BMatC= 1.13D-15 BMatP= 1.18D-14
 IDIUse=1 WtCom= 1.00D+00 WtEn= 0.00D+00
 Large coefficients: NSaved= 20 BigCof=    0.00 CofMax=   10.00 Det=-7.99D-15
 Inversion failed.  Reducing to 19 matrices.
 Large coefficients: NSaved= 19 BigCof=    0.00 CofMax=   10.00 Det=-7.99D-15
 Inversion failed.  Reducing to 18 matrices.
 Large coefficients: NSaved= 18 BigCof=    0.00 CofMax=   10.00 Det=-8.06D-15
 Inversion failed.  Reducing to 17 matrices.
 Large coefficients: NSaved= 17 BigCof=    0.00 CofMax=   10.00 Det=-8.35D-15
 Inversion failed.  Reducing to 16 matrices.
 Large coefficients: NSaved= 16 BigCof=    0.00 CofMax=   10.00 Det=-8.35D-15
 Inversion failed.  Reducing to 15 matrices.
 Coeff-Com: -0.523D-06-0.225D-06 0.655D-06 0.614D-05 0.115D-04-0.632D-04
 Coeff-Com: -0.110D-03-0.299D-03 0.172D-02 0.232D-02-0.547D-02-0.218D-01
 Coeff-Com: -0.558D-01 0.154D+00 0.926D+00
 Coeff:     -0.523D-06-0.225D-06 0.655D-06 0.614D-05 0.115D-04-0.632D-04
 Coeff:     -0.110D-03-0.299D-03 0.172D-02 0.232D-02-0.547D-02-0.218D-01
 Coeff:     -0.558D-01 0.154D+00 0.926D+00
 Gap=     0.165 Goal=   None    Shift=    0.000
 RMSDP=4.66D-09 MaxDP=4.22D-07 DE= 5.55D-11 OVMax= 5.70D-08

 Error on total polarization charges =  0.03787
 SCF Done:  E(RM062X) =  -3866.25523251     A.U. after   20 cycles
            NFock= 20  Conv=0.47D-08     -V/T= 2.0066
 KE= 3.841024403228D+03 PE=-1.369726843913D+04 EE= 3.714235463836D+03
 SMD-CDS (non-electrostatic) energy       (kcal/mol) =       4.73
 (included in total energy above)
 Leave Link  502 at Fri Aug  4 09:48:24 2023, MaxMem=   104857600 cpu:            3445.6 elap:            3459.3
 (Enter /private/chem/g16E03/g16/l601.exe)
 Copying SCF densities to generalized density rwf, IOpCl= 0 IROHF=0.

 **********************************************************************

            Population analysis using the SCF density.

 **********************************************************************

 Orbital symmetries:
       Occupied  (A) (A) (A) (A) (A) (A) (A) (A) (A) (A) (A) (A)
                 (A) (A) (A) (A) (A) (A) (A) (A) (A) (A) (A) (A)
                 (A) (A) (A) (A) (A) (A) (A) (A) (A) (A) (A) (A)
                 (A) (A) (A) (A) (A) (A) (A) (A) (A) (A) (A) (A)
                 (A) (A) (A) (A) (A) (A) (A) (A) (A) (A) (A) (A)
                 (A) (A) (A) (A) (A) (A) (A) (A) (A) (A) (A) (A)
                 (A) (A) (A) (A) (A) (A) (A) (A) (A) (A) (A) (A)
                 (A) (A) (A) (A) (A) (A) (A) (A)
       Virtual   (A) (A) (A) (A) (A) (A) (A) (A) (A) (A) (A) (A)
                 (A) (A) (A) (A) (A) (A) (A) (A) (A) (A) (A) (A)
                 (A) (A) (A) (A) (A) (A) (A) (A) (A) (A) (A) (A)
                 (A) (A) (A) (A) (A) (A) (A) (A) (A) (A) (A) (A)
                 (A) (A) (A) (A) (A) (A) (A) (A) (A) (A) (A) (A)
                 (A) (A) (A) (A) (A) (A) (A) (A) (A) (A) (A) (A)
                 (A) (A) (A) (A) (A) (A) (A) (A) (A) (A) (A) (A)
                 (A) (A) (A) (A) (A) (A) (A) (A) (A) (A) (A) (A)
                 (A) (A) (A) (A) (A) (A) (A) (A) (A) (A) (A) (A)
                 (A) (A) (A) (A) (A) (A) (A) (A) (A) (A) (A) (A)
                 (A) (A) (A) (A) (A) (A) (A) (A) (A) (A) (A) (A)
                 (A) (A) (A) (A) (A) (A) (A) (A) (A) (A) (A) (A)
                 (A) (A) (A) (A) (A) (A) (A) (A) (A) (A) (A) (A)
                 (A) (A) (A) (A) (A) (A) (A) (A) (A) (A) (A) (A)
                 (A) (A) (A) (A) (A) (A) (A) (A) (A) (A) (A) (A)
                 (A) (A) (A) (A) (A) (A) (A) (A) (A) (A) (A) (A)
                 (A) (A) (A) (A) (A) (A) (A) (A) (A) (A) (A) (A)
                 (A) (A) (A) (A) (A) (A) (A) (A) (A) (A) (A) (A)
                 (A) (A) (A) (A) (A) (A) (A) (A) (A) (A) (A) (A)
                 (A) (A) (A) (A) (A) (A) (A) (A) (A) (A) (A) (A)
                 (A) (A) (A) (A) (A) (A) (A) (A) (A) (A) (A) (A)
                 (A) (A) (A) (A) (A) (A) (A) (A) (A) (A) (A) (A)
                 (A) (A) (A) (A) (A) (A) (A) (A) (A) (A) (A) (A)
                 (A) (A) (A) (A) (A) (A) (A) (A) (A) (A) (A) (A)
                 (A) (A) (A) (A) (A) (A) (A) (A) (A) (A) (A) (A)
                 (A) (A) (A) (A) (A) (A) (A) (A) (A) (A) (A) (A)
                 (A) (A) (A) (A) (A) (A) (A) (A) (A) (A) (A) (A)
                 (A) (A) (A) (A) (A) (A) (A) (A) (A) (A) (A) (A)
                 (A) (A) (A) (A) (A) (A) (A) (A) (A) (A) (A) (A)
                 (A) (A) (A) (A) (A) (A) (A) (A) (A) (A) (A) (A)
                 (A) (A) (A) (A) (A) (A) (A) (A) (A) (A) (A) (A)
                 (A) (A) (A) (A) (A) (A) (A) (A) (A) (A)
 The electronic state is 1-A.
 Alpha  occ. eigenvalues -- -485.49578 -90.17414 -62.77618 -57.30699 -57.30434
 Alpha  occ. eigenvalues --  -57.30397 -19.71323 -19.70181 -19.69426 -19.68093
 Alpha  occ. eigenvalues --  -19.65244 -14.88025 -10.63590 -10.62725 -10.62499
[...]
 994,-0.00025308,-0.00020410,0.00072315,-0.00003310,0.00000148,-0.00015
 359,0.00025344,0.00021555,0.00010217,0.00021399,-0.00002118,-0.0000679
 4,-0.00000282,-0.00000775,-0.00002247,-0.00000739,-0.00000687,-0.00000
 458,0.00000351,0.00000329,-0.00000701,0.00000421,-0.00001508,0.0000065
 4,-0.00000831,-0.00002543,-0.00000178,0.00000492,-0.00002255,0.0000568
 6,0.00002548,-0.00001109,-0.00002673,0.00000837,-0.00000803,0.00005080
 ,-0.00003113,-0.00003277,-0.00001347,0.00002102,-0.00004752,0.00001515
 ,-0.00002600,0.00000651,-0.00002420,-0.00000810,0.00001608,0.00001140,
 -0.00014562,-0.00017282,-0.00001288,-0.00053731,0.00104222,0.00027387,
 -0.01400117,0.01178545,-0.01555770,0.10446843,-0.09886522,0.20482761,0
 .00004796,-0.00016050,0.00000745,-0.00000156,-0.00006142,-0.00001324,-
 0.00006249,-0.00008896,-0.00008924,-0.00018026,0.00004233,0.00035544,0
 .00221899,0.00239627,-0.00059066,-0.00119147,0.00147175,0.00237574,-0.
 00678938,-0.00343624,0.00139728,-0.00514683,-0.02027082,0.01146754,-0.
 10158595,-0.09218550,0.07125034,0.00048817,0.01681167,-0.02188642,0.00
 317093,0.00243490,-0.00274561,-0.00184553,-0.00028707,0.00002679,-0.00
 005771,-0.00011586,0.00012007,-0.00055284,-0.00007917,0.00020699,-0.00
 000540,-0.00000645,0.00001752,0.00002599,-0.00004767,0.00002051,-0.000
 02434,0.00000550,0.00006484,-0.00000660,0.00003076,-0.00001527,0.00001
 773,0.00007829,-0.00001750,-0.00000343,-0.00005278,-0.00009351,-0.0000
 1832,0.00000394,0.00001485,-0.00000620,-0.00000028,-0.00003851,0.00001
 916,0.00001509,0.00001145,0.00002078,-0.00000172,-0.00003473,0.0000086
 5,-0.00000176,0.00001900,-0.00002283,-0.00004767,0.00003554,0.00000691
 ,-0.00070444,-0.00006798,0.00016191,-0.00008373,-0.00024508,-0.0003271
 6,0.00064224,0.00045161,0.00081920,-0.00043787,-0.00043163,0.11083224,
 0.00000378,0.00001061,-0.00002157,-0.00058172,0.00004839,0.00042951,0.
 00019332,0.00025544,-0.00042141,0.00050200,-0.00195903,-0.00040756,-0.
 01239404,-0.01358374,0.01248782,0.00024768,-0.00270062,-0.00227537,0.0
 0310401,0.00147441,-0.00131320,0.00253327,0.00765328,-0.00530084,-0.08
 858724,-0.20600918,0.11443399,0.00381465,0.00177354,0.00256027,-0.0017
 7467,-0.00004019,0.00243116,-0.00116725,0.00042830,-0.00111110,0.00038
 859,-0.00023000,-0.00013146,0.00019048,-0.00003593,-0.00010581,-0.0000
 0819,0.00001644,0.00000555,0.00000851,0.00002646,-0.00001813,-0.000006
 44,-0.00001217,-0.00002057,0.00000087,0.00000091,0.00000067,-0.0000112
 1,-0.00000403,0.00000176,0.00001068,0.00001685,0.00001166,-0.00001216,
 0.00006079,0.00004506,0.00000245,0.00002965,-0.00003144,0.00004048,0.0
 0000919,0.00001123,0.00007649,-0.00023315,0.00004032,0.00000421,-0.000
 09321,0.00013985,-0.00007992,0.00001336,-0.00001337,0.00073350,0.00117
 396,0.00036524,-0.00055895,-0.00013364,0.00026117,-0.00020383,-0.00037
 467,-0.00018155,-0.00059290,0.00047616,0.00033743,0.09412594,0.2119484
 8,0.00003537,0.00000576,-0.00000917,-0.00030731,0.00009791,0.00036544,
 0.00018260,-0.00001949,-0.00032483,-0.00003258,-0.00178289,-0.00016748
 ,-0.00696012,-0.01172962,0.00926425,-0.00050185,-0.00216862,-0.0012940
 0,0.00127644,-0.00029891,0.00017268,0.00259332,0.00675745,-0.00294369,
 0.06422896,0.11143463,-0.12842558,-0.00397008,0.01976018,-0.02769555,0
 .00695377,0.00195590,-0.00243694,0.00027900,-0.00079999,0.00161873,-0.
 00047381,-0.00014580,-0.00001572,-0.00068176,-0.00004357,0.00018511,-0
 .00004776,0.00006755,0.00005252,0.00001524,-0.00002526,0.00001389,-0.0
 0002331,-0.00000825,0.00007740,-0.00001894,0.00005822,-0.00002599,0.00
 002181,0.00012122,-0.00003375,0.00001925,-0.00005242,-0.00018558,-0.00
 001298,0.00004834,0.00003597,-0.00000018,0.00002389,-0.00002443,0.0000
 3151,0.00001387,0.00001275,0.00004504,-0.00020587,0.00003075,-0.000003
 15,-0.00007918,0.00015947,-0.00008911,-0.00003883,0.00005994,0.0003401
 3,0.00001523,0.00095621,-0.00043229,-0.00010667,0.00016981,-0.00016444
 ,-0.00005920,0.00004545,-0.00068270,-0.00061948,0.00078513,-0.06160046
 ,-0.12220397,0.14954305,0.00001628,0.00000307,0.00001220,-0.00002211,0
 .00001860,0.00000868,0.00010488,0.00000401,-0.00003492,0.00003883,-0.0
 0002875,0.00002772,-0.00001829,0.00005358,-0.00001603,0.00000464,0.000
 00096,-0.00000527,-0.00000374,-0.00002149,0.00001231,0.00001121,0.0000
 2791,-0.00006256,-0.00004991,-0.00005545,0.00009739,-0.00043365,0.0004
 2997,0.00000365,-0.00229577,-0.00019072,-0.00036821,0.00021863,-0.0000
 8555,-0.00005247,0.00014724,-0.00043702,-0.00070463,0.00112196,0.00386
 680,0.00258526,-0.09824463,0.09309543,0.07886432,0.00262700,0.00375115
 ,0.00430805,0.00625284,0.00268009,0.00120047,-0.00019367,0.00008798,0.
 00000375,-0.00077171,-0.00039477,-0.00049569,0.00514389,0.00098806,0.0
 0196709,0.00000091,-0.00000067,-0.00000278,0.00000006,-0.00000318,-0.0
 0000150,-0.00000206,0.00000309,0.00000167,-0.00000344,-0.00000016,-0.0
 0000124,0.00000181,0.00000106,0.00000529,0.00000548,0.00002992,0.00009
 996,-0.00000385,-0.00001121,-0.00000228,-0.00000186,-0.00000223,0.0000
 0180,-0.00000254,-0.00000070,-0.00000104,-0.00002073,0.00000141,0.0000
 0188,0.00000480,-0.00000400,0.00000279,0.09031400,0.00000786,0.0000011
 3,0.00000471,-0.00002024,0.00000383,0.00000459,0.00004061,-0.00000261,
 -0.00000979,-0.00002210,-0.00000953,-0.00000942,-0.00001229,0.00002045
 ,-0.00001334,0.00000496,-0.00000058,-0.00000536,-0.00000807,-0.0000120
 8,0.00000596,-0.00000754,0.00002495,-0.00005009,0.00000275,-0.00001121
 ,0.00011643,-0.00023220,0.00003200,-0.00001499,-0.00102052,-0.00094546
 ,0.00071112,-0.00000212,0.00023081,-0.00024823,0.00014556,-0.00046401,
 0.00009735,-0.00360980,0.00918828,0.00499242,0.09334234,-0.19488369,-0
 .11612065,0.01208334,-0.01316105,-0.01634298,0.00248927,-0.00184288,0.
 00277784,0.00042243,-0.00100639,-0.00019678,-0.00042383,-0.00049182,0.
 00060296,0.00111528,0.00077807,0.00274285,0.00000033,0.00000128,-0.000
 00135,0.00000019,-0.00000116,-0.00000037,-0.00000042,0.00000219,0.0000
 0068,-0.00000078,-0.00000200,0.00000047,-0.00000108,-0.00000043,0.0000
 0234,-0.00004711,-0.00003834,-0.00003210,-0.00000259,-0.00000499,-0.00
 000212,-0.00000169,-0.00000138,0.00000082,0.00000045,-0.00000122,-0.00
 000025,-0.00001425,-0.00000153,0.00000389,-0.00000882,-0.00000025,-0.0
 0000065,-0.10210562,0.20136516,0.00001016,0.00000709,0.00000870,-0.000
 00846,0.00001108,0.00000092,0.00004625,-0.00002392,-0.00003089,0.00000
 123,0.00003393,0.00002316,0.00002018,-0.00003271,0.00002228,-0.0000199
 9,0.00000270,-0.00000304,0.00001947,0.00000747,0.00000095,-0.00002370,
 -0.00000086,0.00000194,-0.00028698,0.00004632,-0.00012679,0.00011119,0
 .00016235,0.00016987,0.00005791,-0.00131128,-0.00310655,-0.00006893,0.
 00003849,0.00057667,-0.00017966,-0.00037516,0.00089020,0.01162205,-0.0
 1963708,-0.01127115,0.07922753,-0.11621478,-0.15713174,-0.00575888,0.0
 1030034,0.01129125,0.00116021,0.00297557,0.00055198,-0.00040906,0.0007
 4674,0.00001410,-0.00050142,0.00065648,-0.00014303,0.00180727,0.003225
 65,-0.00394418,0.00000060,-0.00000291,-0.00000331,0.00000080,-0.000002
 55,0.00000030,-0.00000216,0.00000166,0.00000137,-0.00000137,0.00000262
 ,-0.00000017,-0.00000315,0.00001287,0.00000960,-0.00005116,-0.00003562
 ,0.00000123,0.00000341,0.00001493,0.00000650,0.00000384,0.00000163,0.0
 0000073,0.00000060,0.00000229,-0.00000286,0.00000906,-0.00000064,-0.00
 000251,0.00002939,-0.00000707,0.00004699,-0.08618514,0.12147429,0.1622
 9260,-0.00000169,0.00000796,-0.00000087,0.00000446,0.00000088,-0.00000
 533,0.00004420,-0.00003290,-0.00001624,-0.00003419,-0.00000120,-0.0000
 0113,0.00000232,-0.00000950,0.00000725,0.00000222,0.00000051,-0.000005
 39,-0.00000421,-0.00000485,0.00000881,0.00000779,0.00000807,-0.0000089
 1,0.00002372,0.00002050,0.00004002,-0.00011491,0.00001478,-0.00002686,
 0.00061241,-0.00023849,-0.00011300,-0.00017271,0.00019844,-0.00037280,
 -0.00003049,0.00017213,0.00010956,0.00576769,0.00335417,0.00090198,0.0
 0615178,0.00245471,-0.00725128,-0.05615830,-0.00831000,0.06415050,0.00
 040004,-0.00280637,0.01241720,-0.00208768,-0.00110549,-0.00012104,0.00
 396336,0.00378588,0.00249943,-0.00098107,0.00019414,-0.00043679,-0.000
 00224,0.00000260,-0.00000146,0.00000085,0.00000056,0.00000056,0.000000
 94,0.00000026,-0.00000015,0.00000038,-0.00000278,0.00000003,0.00000420
 ,0.00000706,-0.00000076,0.00003853,0.00000339,0.00002591,0.00000022,-0
 .00000329,-0.00000153,-0.00000185,-0.00000079,0.00000074,0.00000230,-0
 .00000002,-0.00000003,-0.00000605,-0.00000157,0.00000235,-0.00000585,-
 0.00000332,-0.00000347,-0.00358628,-0.00176219,-0.00107838,0.04676624,
 0.00000971,0.00000428,0.00000610,-0.00000085,-0.00000062,-0.00000164,-
 0.00000425,-0.00005338,0.00000933,0.00007276,0.00004631,0.00003376,-0.
 00001082,-0.00001012,-0.00000973,-0.00001252,0.00000212,0.00000561,0.0
 0002064,0.00000969,-0.00000677,-0.00001105,-0.00002038,0.00005366,-0.0
 0008932,0.00000843,-0.00019463,0.00051330,-0.00020859,0.00009953,-0.00
 071092,0.00149228,0.00064316,-0.00003043,-0.00079124,0.00088763,-0.000
 02196,-0.00051638,-0.00025596,0.00343352,-0.00344067,0.00209433,-0.005
 49207,-0.00241525,0.02712164,-0.00903672,-0.06787041,0.06391405,0.0053
 5816,0.00596210,-0.02150672,-0.00048289,0.00022229,-0.00138456,0.00373
 607,-0.00219936,-0.00170226,0.00003883,-0.00101888,-0.00025910,-0.0000
 0025,-0.00000374,-0.00000394,0.00000032,-0.00000219,0.00000053,-0.0000
 0272,0.00000171,0.00000098,0.00000242,0.00000399,0.00000157,0.00000088
 ,0.00000528,-0.00000568,-0.00002643,-0.00000087,0.00001280,0.00000445,
 0.00000690,0.00000695,0.00000661,0.00000056,-0.00000021,0.00000159,0.0
 0000240,0.00000071,0.00002361,0.00000093,-0.00000401,0.00000373,0.0000
 0370,0.00001714,-0.00172227,0.00078892,-0.00093452,0.00459277,0.069441
 56,-0.00000052,0.00000079,-0.00000008,0.00000101,0.00000365,-0.0000032
 7,0.00001390,-0.00000554,-0.00001605,-0.00000074,-0.00002486,0.0000123
 7,0.00000295,0.00001164,0.00000324,0.00000443,-0.00000015,-0.00000125,
 -0.00000507,-0.00000577,0.00000354,0.00000351,0.00000816,-0.00001549,0
 .00002270,0.00001051,0.00005765,-0.00014319,0.00006478,-0.00006078,0.0
 0031818,-0.00051925,0.00012361,-0.00005031,0.00009560,-0.00016892,-0.0
 0001745,0.00019407,0.00004978,0.00101800,0.00197046,0.00173654,0.00260
 494,0.00054743,-0.00452934,0.06498915,0.06215712,-0.32813740,0.0022135
 8,0.00578947,-0.01139098,-0.00080085,0.00024952,0.00027691,0.00248585,
 -0.00187332,0.00040459,-0.00027688,-0.00057973,0.00042071,0.00000002,0
 .00000030,-0.00000038,0.00000031,0.00000025,-0.00000095,0.00000007,0.0
 0000017,-0.00000005,-0.00000114,-0.00000083,-0.00000002,-0.00000126,0.
 00000480,-0.00000326,0.00001563,0.00000467,0.00000911,-0.00000020,-0.0
 0000384,-0.00000157,-0.00000116,-0.00000031,-0.00000006,0.00000133,-0.
 00000045,0.00000015,-0.00000733,-0.00000083,0.00000198,-0.00000407,-0.
 00000071,-0.00000511,-0.00119825,-0.00066112,0.00017083,-0.07105513,-0
 .06764111,0.34157278,0.00000238,-0.00000119,-0.00000097,-0.00000518,-0
 .00000792,-0.00000806,-0.00000203,0.00002746,0.00002482,0.00002171,-0.
 00000171,0.00004460,-0.00000767,0.00002397,0.00000325,0.00000400,0.000
 00081,0.00000398,0.00000066,-0.00000750,0.00000147,0.00000607,0.000006
 60,-0.00000830,-0.00000631,-0.00003516,0.00001651,0.00007669,-0.000062
 62,0.00008012,0.00029142,-0.00013183,0.00025529,0.00000401,0.00004288,
 -0.00009571,-0.00001850,0.00039399,-0.00002423,0.00574756,0.00265992,0
 .00092357,-0.00084073,-0.00061043,-0.00053229,0.00527697,0.00105897,0.
 00212292,0.00045775,0.00473448,0.00236750,-0.00172288,-0.00043502,-0.0
 0094037,-0.10248625,0.09644271,0.08207659,0.00208774,0.00372240,0.0039
 7942,-0.00000291,0.00000115,-0.00000117,-0.00000595,0.00000042,-0.0000
 0084,-0.00000128,-0.00000116,-0.00000166,0.00000006,0.00000029,-0.0000
 0010,0.00000764,-0.00002396,0.00000575,0.00000919,-0.00001486,-0.00000
 458,0.00000034,-0.00000167,-0.00000081,0.00000025,-0.00000124,-0.00000
 090,0.00000258,-0.00000018,-0.00000035,-0.00000317,-0.00000079,0.00000
 098,0.00000450,0.00000017,0.00000159,-0.00065269,-0.00021990,-0.000174
 28,-0.00004346,0.00011098,0.00004162,0.09523365,0.00000694,0.00000368,
 0.00000575,0.00000118,-0.00001044,-0.00000175,-0.00002330,-0.00003577,
 0.00001425,0.00007497,0.00005473,0.00005057,-0.00001385,-0.00000449,-0
 .00001010,-0.00001120,-0.00000099,0.00000440,0.00002110,0.00001392,-0.
 00000433,-0.00000088,-0.00002645,0.00007399,-0.00007743,-0.00003607,-0
 .00027071,0.00067259,-0.00032412,0.00042557,-0.00000949,0.00098666,-0.
 00125328,-0.00001849,-0.00022234,0.00040358,-0.00012468,-0.00085314,-0
 .00013851,0.00282998,-0.00249241,0.00330809,-0.00052208,-0.00028549,0.
 00046029,0.00126418,0.00096310,0.00265834,-0.00397827,0.00713817,0.007
 44017,-0.00094568,0.00052236,0.00052992,0.09677318,-0.19384847,-0.1178
 9063,0.01227995,-0.01386130,-0.01578263,0.00000011,-0.00000243,-0.0000
 0415,-0.00000036,-0.00000174,0.00000088,-0.00000245,0.00000130,0.00000
 031,0.00000154,0.00000439,0.00000074,0.00001409,-0.00001696,-0.0000044
 5,-0.00001576,-0.00000424,0.00000907,0.00000502,0.00000761,0.00000850,
 0.00000691,0.00000025,0.00000031,-0.00000098,0.00000407,0.00000037,0.0
 0003022,0.00000147,-0.00000680,0.00001495,0.00000028,0.00002305,-0.000
 22882,-0.00004815,-0.00018649,-0.00024986,0.00050100,0.00022703,-0.105
 95729,0.20116631,-0.00000425,-0.00000616,-0.00000455,0.00000162,0.0000
 0674,0.00000049,0.00001804,0.00001833,0.00000510,-0.00001541,-0.000008
 57,0.00000554,0.00000331,0.00000541,0.00000883,0.00000663,0.00000159,-
 0.00000116,-0.00001151,-0.00000951,0.00000246,0.00000171,0.00001461,-0
 .00004140,0.00002942,0.00000079,0.00014228,-0.00032201,0.00014435,-0.0
 0020691,-0.00001155,-0.00020516,0.00079806,0.00002526,0.00009763,-0.00
 022572,0.00008784,0.00069972,0.00004711,0.00063268,0.00346172,0.000588
 09,-0.00052431,0.00081529,-0.00064071,0.00217751,0.00276830,-0.0038553
 8,0.01263229,-0.01964207,-0.01279573,-0.00030397,-0.00121054,0.0004161
 9,0.08143910,-0.11585489,-0.15541117,-0.00604995,0.01051091,0.01101906
 ,-0.00000064,0.00000049,0.00000337,-0.00000060,0.00000218,-0.00000044,
 0.00000114,-0.00000160,-0.00000044,-0.00000267,-0.00000133,-0.00000159
 ,0.00000975,-0.00001239,0.00000418,0.00001645,-0.00000613,-0.00000445,
 -0.00000322,-0.00000403,-0.00000452,-0.00000390,-0.00000050,-0.0000001
 6,0.00000162,-0.00000201,-0.00000011,-0.00001661,-0.00000075,0.0000038
 0,-0.00000513,0.00000109,-0.00001025,-0.00019268,-0.00018244,0.0000185
 9,0.00050682,-0.00098289,-0.00040824,-0.08905687,0.12061550,0.16031971
 ,0.00000942,0.00000166,0.00000432,-0.00000830,-0.00002105,-0.00003192,
 -0.00008839,-0.00009446,0.00014814,0.00054336,0.00018613,0.00014871,-0
 .00003356,0.00013630,-0.00001808,0.00002759,-0.00000078,0.00003993,0.0
 0001617,-0.00001967,-0.00001851,-0.00002242,0.00001453,-0.00004194,-0.
 00002581,0.00009893,0.00013437,-0.00032753,0.00048368,-0.00017105,-0.0
 0299268,-0.00051210,0.00053092,0.00024115,-0.00056875,-0.00037150,0.00
 027101,-0.00093591,-0.00048706,0.00131050,-0.00353913,0.01153068,0.003
 62250,0.00370059,0.00253570,-0.00112857,0.00033369,-0.00049478,0.00608
 038,0.00318440,0.00080146,-0.00017098,0.00028003,-0.00037441,0.0065068
 9,0.00210404,-0.00703410,-0.05502307,-0.00697170,0.06224733,-0.0000080
 8,-0.00000946,-0.00000968,-0.00000342,-0.00000444,0.00000167,-0.000005
 06,0.00000037,-0.00000215,0.00000737,0.00000311,0.00000848,0.00001916,
 -0.00002222,-0.00000676,0.00002410,0.00002018,-0.00002615,0.00001251,-
 0.00002156,0.00000199,0.00001724,0.00000170,-0.00000453,0.00000813,-0.
 00000363,-0.00000337,-0.00001197,-0.00000188,0.00000376,-0.00001378,0.
 00000475,-0.00002052,0.00029247,-0.00013218,0.00062157,-0.00056265,-0.
 00027486,-0.00017361,-0.00343615,-0.00181604,-0.00106591,0.04485247,0.
 00000274,-0.00000450,0.00000022,-0.00002361,-0.00000316,0.00001599,-0.
 00001387,0.00001468,-0.00003757,0.00007796,-0.00011867,0.00005886,0.00
 004842,0.00001062,0.00002105,0.00002893,-0.00000408,0.00000619,-0.0000
 2411,-0.00001706,0.00000531,0.00000772,0.00002423,-0.00005462,0.000084
 71,0.00003773,0.00020958,-0.00067688,0.00019156,-0.00001568,0.00011538
 ,-0.00057349,-0.00249095,0.00005385,-0.00021564,0.00074820,0.00014633,
 0.00004815,0.00022265,0.00381884,0.00842806,-0.01942169,0.00387817,-0.
 00266216,-0.00156998,-0.00010629,-0.00087855,-0.00010396,0.00333548,-0
 .00242658,0.00165801,-0.00002665,-0.00090337,0.00100794,-0.00537024,-0
 .00161609,0.02650530,-0.00795767,-0.06808448,0.06313615,-0.00000324,0.
 00000259,0.00000118,-0.00000351,0.00000068,-0.00000081,0.00000107,0.00
 000025,-0.00000026,-0.00000303,-0.00000301,-0.00000128,-0.00000091,-0.
 00001845,0.00000285,-0.00001506,0.00000247,0.00000021,0.00000237,-0.00
 000976,-0.00000194,-0.00000113,-0.00000245,-0.00000108,-0.00000029,-0.
 00000298,-0.00000085,-0.00002319,-0.00000234,0.00000367,0.00000139,-0.
 00001040,-0.00001164,0.00024953,0.00049368,-0.00095890,-0.00028618,0.0
 0004765,-0.00002261,-0.00171275,0.00070569,-0.00103367,0.00439572,0.06
 754919,-0.00000121,-0.00000316,-0.00000350,-0.00003343,0.00000080,0.00
 002655,0.00012311,0.00015575,-0.00012072,-0.00057238,0.00017360,-0.000
 07768,0.00001808,-0.00017114,0.00011162,-0.00002309,0.00001913,-0.0000
 2637,-0.00003047,0.00000071,0.00001226,0.00002246,-0.00000259,-0.00000
 774,0.00005465,0.00001064,0.00010350,-0.00036175,0.00011973,0.00003279
 ,-0.00047268,0.00037202,-0.00251307,-0.00098055,0.00177291,0.00056428,
 0.00021187,-0.00008349,0.00035867,0.00299201,0.00365106,-0.01143346,0.
 00232749,-0.00206326,0.00067855,-0.00050959,-0.00003456,0.00048752,0.0
 0113716,0.00149612,0.00141135,-0.00000688,-0.00003020,-0.00012872,0.00
 276521,0.00017720,-0.00363016,0.06290835,0.06270778,-0.32848533,0.0000
 0191,0.00000542,0.00000790,-0.00000112,0.00000376,-0.00000207,0.000004
 31,-0.00000122,-0.00000013,-0.00001312,-0.00000782,-0.00000473,0.00002
 716,-0.00002160,-0.00000279,-0.00000467,-0.00000685,0.00001395,-0.0000
 0357,0.00000511,-0.00001304,-0.00001831,-0.00000398,0.00000392,-0.0000
 0594,0.00000057,0.00000298,-0.00001005,0.00000137,-0.00000035,0.000006
 68,0.00000133,0.00000254,0.00012041,0.00035332,-0.00033451,-0.00017061
 ,-0.00001575,-0.00010060,-0.00109846,-0.00070685,0.00023006,-0.0684029
 9,-0.06787584,0.34283654\\0.00000442,-0.00001998,0.00000991,-0.0000035
 9,-0.00000832,0.00000624,0.00001324,-0.00000758,0.00000232,-0.00002221
 ,0.00000439,0.00000652,-0.00001470,0.00000644,-0.00000345,0.,-0.000017
 47,-0.00000464,-0.00000471,0.00000415,0.00001343,-0.00001199,0.0000169
 0,0.00000962,0.00000968,-0.00002012,-0.00002982,-0.00000832,-0.0000060
 1,0.00001470,-0.00000494,0.00000952,-0.00001057,0.00000332,-0.00000654
 ,-0.00001659,0.00001044,0.00000276,-0.00000519,0.00001001,-0.00000165,
 -0.00002789,-0.00000394,0.00001347,-0.00000509,0.00001384,-0.00000057,
 0.00000086,0.00001744,0.00000771,0.00000498,0.00000589,0.00000312,-0.0
 0000426,-0.00000710,0.00000152,-0.00001257,0.00001298,-0.00000351,0.00
 000709,-0.00000865,-0.00000172,0.00002266,-0.00001138,0.00001269,0.000
 00845,-0.00000365,-0.00000032,0.00001519,0.00000258,0.00000131,0.00000
 754,0.00000249,0.00000288,0.00000682,-0.00000361,-0.00000107,-0.000002
 39,-0.00000507,-0.00000606,0.00000283,-0.00000474,0.00000161,0.0000085
 2,0.00000369,0.00000180,-0.00000135,-0.00000139,-0.00000008,0.00000264
 ,-0.00000213,0.00000055,0.00000055,0.00001175,0.00000234,-0.00000487,0
 .00000789,0.00000720,-0.00000456,-0.00000219,0.00000144,-0.00000442,-0
 .00000537,-0.00000081,-0.00001319\\\@


 PERICLES, SOPHOCLES,
 PELOPONESIAN WAR,
 FRENCH VERBS, LATIN VERBS
 H2SO4.
 Job cpu time:       0 days  7 hours 52 minutes 57.0 seconds.
 Elapsed time:       0 days  7 hours 54 minutes 44.4 seconds.
 File lengths (MBytes):  RWF=    995 Int=      0 D2E=      0 Chk=     30 Scr=      1
 Normal termination of Gaussian 16 at Sun Aug  6 05:45:38 2023.
 
 Sun Aug  6 05:45:38 AM IDT 2023
 ark
 161091.618u 48.597s 44:55:31.15 99.6%	0+0k 32064+51876952io 314pf+0w
 
 ****** xrung16 messages ******
 Job 2-2_charged_pka is run from:
 /var/spool/scratch/tchem07/g16/2-2_charged_pka
 161091.613u 48.577s 44:55:31.12 99.6%	0+0k 32008+51876920io 313pf+0w
