 cputime      unlimited
 filesize     unlimited
 datasize     unlimited
 stacksize    unlimited
 coredumpsize 0 kbytes
 memoryuse    256000 kbytes
 vmemoryuse   unlimited
 descriptors  1024 
 memorylocked 8192 kbytes
 maxproc      382511 
 maxlocks     unlimited
 maxsignal    382511 
 maxmessage   819200 
 maxnice      0 
 maxrtprio    0 
 maxrttime    unlimited
 Fri Jul 28 12:37:24 AM IDT 2023
 ark
 
        *=*=*=*=*=*=*=*=*=*=*=*=*=*=*=*=*
        * xrung16: Running g16          *
        * (Command = time /bin/nice g16 *
        *=*=*=*=*=*=*=*=*=*=*=*=*=*=*=*=*
        g16root=/private/chem/g16E03
        g16 = /private/chem/g16E03/g16/g16
 
 Entering Gaussian System, Link 0=g16
 Initial command:
 /private/chem/g16E03/g16/l1.exe "/var/spool/scratch/tchem07/g16/2-20_neutral_pka/Gau-3104539.inp" -scrdir="/var/spool/scratch/tchem07/g16/2-20_neutral_pka/"
 Entering Link 1 = /private/chem/g16E03/g16/l1.exe PID=   3104540.
  
 Copyright (c) 1988,1990,1992,1993,1995,1998,2003,2009,2016,
            Gaussian, Inc.  All Rights Reserved.
  
 This is part of the Gaussian(R) 16 program.  It is based on
 the Gaussian(R) 09 system (copyright 2009, Gaussian, Inc.),
 the Gaussian(R) 03 system (copyright 2003, Gaussian, Inc.),
 the Gaussian(R) 98 system (copyright 1998, Gaussian, Inc.),
 the Gaussian(R) 94 system (copyright 1995, Gaussian, Inc.),
 the Gaussian 92(TM) system (copyright 1992, Gaussian, Inc.),
 the Gaussian 90(TM) system (copyright 1990, Gaussian, Inc.),
 the Gaussian 88(TM) system (copyright 1988, Gaussian, Inc.),
 the Gaussian 86(TM) system (copyright 1986, Carnegie Mellon
 University), and the Gaussian 82(TM) system (copyright 1983,
 Carnegie Mellon University). Gaussian is a federally registered
 trademark of Gaussian, Inc.
  
 This software contains proprietary and confidential information,
 including trade secrets, belonging to Gaussian, Inc.
  
 This software is provided under written license and may be
 used, copied, transmitted, or stored only in accord with that
 written license.
  
 The following legend is applicable only to US Government
 contracts under FAR:
  
                    RESTRICTED RIGHTS LEGEND
  
 Use, reproduction and disclosure by the US Government is
 subject to restrictions as set forth in subparagraphs (a)
 and (c) of the Commercial Computer Software - Restricted
 Rights clause in FAR 52.227-19.
  
 Gaussian, Inc.
 340 Quinnipiac St., Bldg. 40, Wallingford CT 06492
  
  
 ---------------------------------------------------------------
 Warning -- This program may not be used in any manner that
 competes with the business of Gaussian, Inc. or will provide
 assistance to any competitor of Gaussian, Inc.  The licensee
 of this program is prohibited from giving any competitor of
 Gaussian, Inc. access to this program.  By using this program,
 the user acknowledges that Gaussian, Inc. is engaged in the
 business of creating and licensing software in the field of
 computational chemistry and represents and warrants to the
 licensee that it is not a competitor of Gaussian, Inc. and that
 it will not use this program in any manner prohibited above.
 ---------------------------------------------------------------
  

 Cite this work as:
 Gaussian 16, Revision A.03,
 M. J. Frisch, G. W. Trucks, H. B. Schlegel, G. E. Scuseria, 
 M. A. Robb, J. R. Cheeseman, G. Scalmani, V. Barone, 
 G. A. Petersson, H. Nakatsuji, X. Li, M. Caricato, A. V. Marenich, 
 J. Bloino, B. G. Janesko, R. Gomperts, B. Mennucci, H. P. Hratchian, 
 J. V. Ortiz, A. F. Izmaylov, J. L. Sonnenberg, D. Williams-Young, 
 F. Ding, F. Lipparini, F. Egidi, J. Goings, B. Peng, A. Petrone, 
 T. Henderson, D. Ranasinghe, V. G. Zakrzewski, J. Gao, N. Rega, 
 G. Zheng, W. Liang, M. Hada, M. Ehara, K. Toyota, R. Fukuda, 
 J. Hasegawa, M. Ishida, T. Nakajima, Y. Honda, O. Kitao, H. Nakai, 
 T. Vreven, K. Throssell, J. A. Montgomery, Jr., J. E. Peralta, 
 F. Ogliaro, M. J. Bearpark, J. J. Heyd, E. N. Brothers, K. N. Kudin, 
 V. N. Staroverov, T. A. Keith, R. Kobayashi, J. Normand, 
 K. Raghavachari, A. P. Rendell, J. C. Burant, S. S. Iyengar, 
 J. Tomasi, M. Cossi, J. M. Millam, M. Klene, C. Adamo, R. Cammi, 
 J. W. Ochterski, R. L. Martin, K. Morokuma, O. Farkas, 
 J. B. Foresman, and D. J. Fox, Gaussian, Inc., Wallingford CT, 2016.
 
 ******************************************
 Gaussian 16:  ES64L-G16RevA.03 25-Dec-2016
                28-Jul-2023 
 ******************************************
 %chk=/home/ch/tchem07/g16/2-20_neutral_pka.chk
 -------------------------------------------------------
 #P M062X/6-31+G(d,p) Opt Freq SCRF=(SMD, Solvent=Water)
 -------------------------------------------------------
 1/18=20,19=15,26=3,38=1/1,3;
 2/9=110,12=2,17=6,18=5,40=1/2;
 3/5=1,6=6,7=111,11=2,25=1,30=1,70=32201,71=1,72=1,74=-55/1,2,3;
 4//1;
 5/5=2,38=5,53=1/2;
 6/7=2,8=2,9=2,10=2,28=1/1;
 7//1,2,3,16;
 1/18=20,19=15,26=3/3(2);
 2/9=110/2;
 99//99;
 2/9=110/2;
 3/5=1,6=6,7=111,11=2,25=1,30=1,70=32205,71=1,72=1,74=-55/1,2,3;
 4/5=5,16=3,69=1/1;
 5/5=2,38=5,53=1/2;
 7//1,2,3,16;
 1/18=20,19=15,26=3/3(-5);
 2/9=110/2;
 6/7=2,8=2,9=2,10=2,19=2,28=1/1;
 99/9=1/99;
 Leave Link    1 at Fri Jul 28 00:37:24 2023, MaxMem=           0 cpu:               0.0 elap:               0.0
 (Enter /private/chem/g16E03/g16/l101.exe)
 ----------------
 2-20_neutral_pka
 ----------------
 Symbolic Z-matrix:
 Charge =  0 Multiplicity = 1
 Br
 C                    1    B1
 C                    2    B2       1    A1
 C                    3    B3       2    A2       1    D1       0
 C                    4    B4       3    A3       2    D2       0
 S                    5    B5       4    A4       3    D3       0
 O                    6    B6       5    A5       4    D4       0
 O                    6    B7       5    A6       4    D5       0
 C                    8    B8       6    A7       5    D6       0
 C                    9    B9       8    A8       6    D7       0
 O                    10   B10      9    A9       8    D8       0
 C                    11   B11      10   A10      9    D9       0
 C                    12   B12      11   A11      10   D10      0
 N                    13   B13      12   A12      11   D11      0
 C                    14   B14      13   A13      12   D12      0
 C                    13   B15      12   A14      11   D13      0
 O                    16   B16      13   A15      12   D14      0
 C                    17   B17      16   A16      13   D15      0
 O                    6    B18      5    A17      4    D16      0
 C                    5    B19      4    A18      3    D17      0
 C                    20   B20      5    A19      4    D18      0
 H                    3    B21      2    A20      1    D19      0
 H                    4    B22      3    A21      2    D20      0
 H                    9    B23      8    A22      6    D21      0
 H                    10   B24      9    A23      8    D22      0
 H                    12   B25      11   A24      10   D23      0
 H                    12   B26      11   A25      10   D24      0
 H                    13   B27      12   A26      11   D25      0
 H                    14   B28      13   A27      12   D26      0
 H                    15   B29      14   A28      13   D27      0
 H                    15   B30      14   A29      13   D28      0
 H                    15   B31      14   A30      13   D29      0
 H                    16   B32      13   A31      12   D30      0
 H                    18   B33      17   A32      16   D31      0
 H                    18   B34      17   A33      16   D32      0
 H                    20   B35      5    A34      4    D33      0
 H                    21   B36      20   A35      5    D34      0
       Variables:
  B1                    1.91                     
  B2                    1.3552                   
  B3                    1.54                     
  B4                    1.3552                   
  B5                    1.78                     
  B6                    1.4696                   
  B7                    1.67                     
  B8                    1.43                     
  B9                    1.49425                  
  B10                   1.43948                  
  B11                   1.47657                  
  B12                   1.50146                  
  B13                   1.47                     
  B14                   1.47                     
  B15                   1.5164                   
  B16                   1.46057                  
  B17                   1.46307                  
  B18                   1.4696                   
  B19                   1.54                     
  B20                   1.3552                   
  B21                   1.07                     
  B22                   1.07                     
  B23                   1.07                     
  B24                   1.07                     
  B25                   1.07                     
  B26                   1.07                     
  B27                   1.07                     
  B28                   1.                       
  B29                   1.07                     
  B30                   1.07                     
  B31                   1.07                     
  B32                   1.07                     
  B33                   1.07                     
  B34                   1.07                     
  B35                   1.07                     
  B36                   1.07                     
  A1                  120.                       
  A2                  120.                       
  A3                  120.                       
  A4                  120.                       
  A5                  109.47122                  
  A6                  109.47122                  
  A7                  109.47122                  
  A8                  114.02725                  
  A9                  115.70429                  
  A10                  95.66834                  
  A11                  98.58497                  
  A12                 118.46287                  
  A13                 109.47122                  
  A14                 100.52174                  
  A15                 111.63387                  
  A16                 101.33153                  
  A17                 109.47122                  
  A18                 120.                       
  A19                 120.                       
  A20                 120.                       
  A21                 120.                       
  A22                 107.55047                  
  A23                 115.32217                  
  A24                 113.48024                  
  A25                 111.71901                  
  A26                 105.37188                  
  A27                 109.47122                  
  A28                 109.47122                  
  A29                 109.47122                  
  A30                 109.47122                  
  A31                 115.03377                  
  A32                 112.3961                   
  A33                 110.84712                  
  A34                 120.                       
  A35                 120.                       
  D1                  180.                       
  D2                    0.                       
  D3                 -180.                       
  D4                  120.                       
  D5                 -120.                       
  D6                  180.                       
  D7                 -175.63332                  
  D8                   50.33571                  
  D9                  157.51338                  
  D10                 -60.0533                   
  D11                 175.87114                  
  D12                -179.35354                  
  D13                  51.27271                  
  D14                -137.83835                  
  D15                  95.88696                  
  D16                   0.                       
  D17                   0.                       
  D18                   0.                       
  D19                   0.                       
  D20                 180.                       
  D21                  59.71147                  
  D22                 -71.2978                   
  D23                -179.44489                  
  D24                  58.30575                  
  D25                 -62.92971                  
  D26                  60.64646                  
  D27                 180.                       
  D28                 -60.                       
  D29                  60.                       
  D30                  97.82848                  
  D31                 163.47438                  
  D32                 -75.04322                  
  D33                 180.                       
  D34                 180.                       
 
     9 tetrahedral angles replaced.
 ITRead=  0  0  0  0  0  0  0  0  0  0  0  0  0  0  0  0  0  0  0  0
 ITRead=  0  0  0  0  0  0  0  0  0  0  0  0  0  0  0  0  0
 MicOpt= -1 -1 -1 -1 -1 -1 -1 -1 -1 -1 -1 -1 -1 -1 -1 -1 -1 -1 -1 -1
 MicOpt= -1 -1 -1 -1 -1 -1 -1 -1 -1 -1 -1 -1 -1 -1 -1 -1 -1
 NAtoms=     37 NQM=       37 NQMF=       0 NMMI=      0 NMMIF=      0
                NMic=       0 NMicF=      0.
                    Isotopes and Nuclear Properties:
 (Nuclear quadrupole moments (NQMom) in fm**2, nuclear magnetic moments (NMagM)
  in nuclear magnetons)

  Atom         1           2           3           4           5           6           7           8           9          10
 IAtWgt=          79          12          12          12          12          32          16          16          12          12
 AtmWgt=  78.9183361  12.0000000  12.0000000  12.0000000  12.0000000  31.9720718  15.9949146  15.9949146  12.0000000  12.0000000
 NucSpn=           3           0           0           0           0           0           0           0           0           0
 AtZEff=  -0.0000000  -0.0000000  -0.0000000  -0.0000000  -0.0000000  -0.0000000  -0.0000000  -0.0000000  -0.0000000  -0.0000000
 NQMom=   31.3000000   0.0000000   0.0000000   0.0000000   0.0000000   0.0000000   0.0000000   0.0000000   0.0000000   0.0000000
 NMagM=    2.1063990   0.0000000   0.0000000   0.0000000   0.0000000   0.0000000   0.0000000   0.0000000   0.0000000   0.0000000
 AtZNuc=  35.0000000   6.0000000   6.0000000   6.0000000   6.0000000  16.0000000   8.0000000   8.0000000   6.0000000   6.0000000

  Atom        11          12          13          14          15          16          17          18          19          20
 IAtWgt=          16          12          12          14          12          12          16          12          16          12
 AtmWgt=  15.9949146  12.0000000  12.0000000  14.0030740  12.0000000  12.0000000  15.9949146  12.0000000  15.9949146  12.0000000
 NucSpn=           0           0           0           2           0           0           0           0           0           0
 AtZEff=  -0.0000000  -0.0000000  -0.0000000  -0.0000000  -0.0000000  -0.0000000  -0.0000000  -0.0000000  -0.0000000  -0.0000000
 NQMom=    0.0000000   0.0000000   0.0000000   2.0440000   0.0000000   0.0000000   0.0000000   0.0000000   0.0000000   0.0000000
 NMagM=    0.0000000   0.0000000   0.0000000   0.4037610   0.0000000   0.0000000   0.0000000   0.0000000   0.0000000   0.0000000
 AtZNuc=   8.0000000   6.0000000   6.0000000   7.0000000   6.0000000   6.0000000   8.0000000   6.0000000   8.0000000   6.0000000

  Atom        21          22          23          24          25          26          27          28          29          30
 IAtWgt=          12           1           1           1           1           1           1           1           1           1
 AtmWgt=  12.0000000   1.0078250   1.0078250   1.0078250   1.0078250   1.0078250   1.0078250   1.0078250   1.0078250   1.0078250
 NucSpn=           0           1           1           1           1           1           1           1           1           1
 AtZEff=  -0.0000000  -0.0000000  -0.0000000  -0.0000000  -0.0000000  -0.0000000  -0.0000000  -0.0000000  -0.0000000  -0.0000000
 NQMom=    0.0000000   0.0000000   0.0000000   0.0000000   0.0000000   0.0000000   0.0000000   0.0000000   0.0000000   0.0000000
 NMagM=    0.0000000   2.7928460   2.7928460   2.7928460   2.7928460   2.7928460   2.7928460   2.7928460   2.7928460   2.7928460
 AtZNuc=   6.0000000   1.0000000   1.0000000   1.0000000   1.0000000   1.0000000   1.0000000   1.0000000   1.0000000   1.0000000

  Atom        31          32          33          34          35          36          37
 IAtWgt=           1           1           1           1           1           1           1
 AtmWgt=   1.0078250   1.0078250   1.0078250   1.0078250   1.0078250   1.0078250   1.0078250
 NucSpn=           1           1           1           1           1           1           1
 AtZEff=  -0.0000000  -0.0000000  -0.0000000  -0.0000000  -0.0000000  -0.0000000  -0.0000000
 NQMom=    0.0000000   0.0000000   0.0000000   0.0000000   0.0000000   0.0000000   0.0000000
 NMagM=    2.7928460   2.7928460   2.7928460   2.7928460   2.7928460   2.7928460   2.7928460
 AtZNuc=   1.0000000   1.0000000   1.0000000   1.0000000   1.0000000   1.0000000   1.0000000
 Leave Link  101 at Fri Jul 28 00:37:24 2023, MaxMem=   104857600 cpu:               0.2 elap:               0.2
 (Enter /private/chem/g16E03/g16/l103.exe)

 GradGradGradGradGradGradGradGradGradGradGradGradGradGradGradGradGradGrad
 Berny optimization.
 Initialization pass.
                           ----------------------------
                           !    Initial Parameters    !
                           ! (Angstroms and Degrees)  !
 --------------------------                            --------------------------
 ! Name  Definition              Value          Derivative Info.                !
 --------------------------------------------------------------------------------
 ! R1    R(1,2)                  1.91           estimate D2E/DX2                !
 ! R2    R(2,3)                  1.3552         estimate D2E/DX2                !
 ! R3    R(2,21)                 1.54           estimate D2E/DX2                !
 ! R4    R(3,4)                  1.54           estimate D2E/DX2                !
 ! R5    R(3,22)                 1.07           estimate D2E/DX2                !
 ! R6    R(4,5)                  1.3552         estimate D2E/DX2                !
 ! R7    R(4,23)                 1.07           estimate D2E/DX2                !
 ! R8    R(5,6)                  1.78           estimate D2E/DX2                !
 ! R9    R(5,20)                 1.54           estimate D2E/DX2                !
 ! R10   R(6,7)                  1.4696         estimate D2E/DX2                !
 ! R11   R(6,8)                  1.67           estimate D2E/DX2                !
 ! R12   R(6,19)                 1.4696         estimate D2E/DX2                !
 ! R13   R(8,9)                  1.43           estimate D2E/DX2                !
 ! R14   R(9,10)                 1.4943         estimate D2E/DX2                !
 ! R15   R(9,18)                 1.5447         estimate D2E/DX2                !
 ! R16   R(9,24)                 1.07           estimate D2E/DX2                !
 ! R17   R(10,11)                1.4395         estimate D2E/DX2                !
 ! R18   R(10,16)                1.5264         estimate D2E/DX2                !
 ! R19   R(10,25)                1.07           estimate D2E/DX2                !
 ! R20   R(11,12)                1.4766         estimate D2E/DX2                !
 ! R21   R(12,13)                1.5015         estimate D2E/DX2                !
 ! R22   R(12,26)                1.07           estimate D2E/DX2                !
 ! R23   R(12,27)                1.07           estimate D2E/DX2                !
 ! R24   R(13,14)                1.47           estimate D2E/DX2                !
 ! R25   R(13,16)                1.5164         estimate D2E/DX2                !
 ! R26   R(13,28)                1.07           estimate D2E/DX2                !
 ! R27   R(14,15)                1.47           estimate D2E/DX2                !
 ! R28   R(14,29)                1.0            estimate D2E/DX2                !
 ! R29   R(15,30)                1.07           estimate D2E/DX2                !
 ! R30   R(15,31)                1.07           estimate D2E/DX2                !
 ! R31   R(15,32)                1.07           estimate D2E/DX2                !
 ! R32   R(16,17)                1.4606         estimate D2E/DX2                !
 ! R33   R(16,33)                1.07           estimate D2E/DX2                !
 ! R34   R(17,18)                1.4631         estimate D2E/DX2                !
 ! R35   R(18,34)                1.07           estimate D2E/DX2                !
 ! R36   R(18,35)                1.07           estimate D2E/DX2                !
 ! R37   R(20,21)                1.3552         estimate D2E/DX2                !
 ! R38   R(20,36)                1.07           estimate D2E/DX2                !
 ! R39   R(21,37)                1.07           estimate D2E/DX2                !
 ! A1    A(1,2,3)              120.0            estimate D2E/DX2                !
 ! A2    A(1,2,21)             120.0            estimate D2E/DX2                !
 ! A3    A(3,2,21)             120.0            estimate D2E/DX2                !
 ! A4    A(2,3,4)              120.0            estimate D2E/DX2                !
 ! A5    A(2,3,22)             120.0            estimate D2E/DX2                !
 ! A6    A(4,3,22)             120.0            estimate D2E/DX2                !
 ! A7    A(3,4,5)              120.0            estimate D2E/DX2                !
 ! A8    A(3,4,23)             120.0            estimate D2E/DX2                !
 ! A9    A(5,4,23)             120.0            estimate D2E/DX2                !
 ! A10   A(4,5,6)              120.0            estimate D2E/DX2                !
 ! A11   A(4,5,20)             120.0            estimate D2E/DX2                !
 ! A12   A(6,5,20)             120.0            estimate D2E/DX2                !
 ! A13   A(5,6,7)              109.4712         estimate D2E/DX2                !
 ! A14   A(5,6,8)              109.4712         estimate D2E/DX2                !
 ! A15   A(5,6,19)             109.4712         estimate D2E/DX2                !
 ! A16   A(7,6,8)              109.4712         estimate D2E/DX2                !
 ! A17   A(7,6,19)             109.4712         estimate D2E/DX2                !
 ! A18   A(8,6,19)             109.4712         estimate D2E/DX2                !
 ! A19   A(6,8,9)              109.4712         estimate D2E/DX2                !
 ! A20   A(8,9,10)             114.0272         estimate D2E/DX2                !
 ! A21   A(8,9,18)             115.4991         estimate D2E/DX2                !
 ! A22   A(8,9,24)             107.5505         estimate D2E/DX2                !
 ! A23   A(10,9,18)             97.3304         estimate D2E/DX2                !
 ! A24   A(10,9,24)            111.8643         estimate D2E/DX2                !
 ! A25   A(18,9,24)            110.4134         estimate D2E/DX2                !
 ! A26   A(9,10,11)            115.7043         estimate D2E/DX2                !
 ! A27   A(9,10,16)            100.9118         estimate D2E/DX2                !
 ! A28   A(9,10,25)            115.3222         estimate D2E/DX2                !
 ! A29   A(11,10,16)           106.1711         estimate D2E/DX2                !
 ! A30   A(11,10,25)           103.985          estimate D2E/DX2                !
 ! A31   A(16,10,25)           114.7954         estimate D2E/DX2                !
 ! A32   A(10,11,12)            95.6683         estimate D2E/DX2                !
 ! A33   A(11,12,13)            98.585          estimate D2E/DX2                !
 ! A34   A(11,12,26)           113.4802         estimate D2E/DX2                !
 ! A35   A(11,12,27)           111.719          estimate D2E/DX2                !
 ! A36   A(13,12,26)           112.6821         estimate D2E/DX2                !
 ! A37   A(13,12,27)           112.4013         estimate D2E/DX2                !
 ! A38   A(26,12,27)           107.8927         estimate D2E/DX2                !
 ! A39   A(12,13,14)           118.4629         estimate D2E/DX2                !
 ! A40   A(12,13,16)           100.5217         estimate D2E/DX2                !
 ! A41   A(12,13,28)           105.3719         estimate D2E/DX2                !
 ! A42   A(14,13,16)           113.8137         estimate D2E/DX2                !
 ! A43   A(14,13,28)           108.2264         estimate D2E/DX2                !
 ! A44   A(16,13,28)           109.8916         estimate D2E/DX2                !
 ! A45   A(13,14,15)           109.4712         estimate D2E/DX2                !
 ! A46   A(13,14,29)           109.4712         estimate D2E/DX2                !
 ! A47   A(15,14,29)           109.4712         estimate D2E/DX2                !
 ! A48   A(14,15,30)           109.4712         estimate D2E/DX2                !
 ! A49   A(14,15,31)           109.4712         estimate D2E/DX2                !
 ! A50   A(14,15,32)           109.4712         estimate D2E/DX2                !
 ! A51   A(30,15,31)           109.4712         estimate D2E/DX2                !
 ! A52   A(30,15,32)           109.4712         estimate D2E/DX2                !
 ! A53   A(31,15,32)           109.4712         estimate D2E/DX2                !
 ! A54   A(10,16,13)           101.2047         estimate D2E/DX2                !
 ! A55   A(10,16,17)           109.2077         estimate D2E/DX2                !
 ! A56   A(10,16,33)           110.9056         estimate D2E/DX2                !
 ! A57   A(13,16,17)           111.6339         estimate D2E/DX2                !
 ! A58   A(13,16,33)           115.0338         estimate D2E/DX2                !
 ! A59   A(17,16,33)           108.6036         estimate D2E/DX2                !
 ! A60   A(16,17,18)           101.3315         estimate D2E/DX2                !
 ! A61   A(9,18,17)            101.9584         estimate D2E/DX2                !
 ! A62   A(9,18,34)            112.7825         estimate D2E/DX2                !
 ! A63   A(9,18,35)            110.3851         estimate D2E/DX2                !
 ! A64   A(17,18,34)           112.3961         estimate D2E/DX2                !
 ! A65   A(17,18,35)           110.8471         estimate D2E/DX2                !
 ! A66   A(34,18,35)           108.3997         estimate D2E/DX2                !
 ! A67   A(5,20,21)            120.0            estimate D2E/DX2                !
 ! A68   A(5,20,36)            120.0            estimate D2E/DX2                !
 ! A69   A(21,20,36)           120.0            estimate D2E/DX2                !
 ! A70   A(2,21,20)            120.0            estimate D2E/DX2                !
 ! A71   A(2,21,37)            120.0            estimate D2E/DX2                !
 ! A72   A(20,21,37)           120.0            estimate D2E/DX2                !
 ! D1    D(1,2,3,4)            180.0            estimate D2E/DX2                !
 ! D2    D(1,2,3,22)             0.0            estimate D2E/DX2                !
 ! D3    D(21,2,3,4)             0.0            estimate D2E/DX2                !
 ! D4    D(21,2,3,22)          180.0            estimate D2E/DX2                !
 ! D5    D(1,2,21,20)          180.0            estimate D2E/DX2                !
 ! D6    D(1,2,21,37)            0.0            estimate D2E/DX2                !
 ! D7    D(3,2,21,20)            0.0            estimate D2E/DX2                !
 ! D8    D(3,2,21,37)          180.0            estimate D2E/DX2                !
 ! D9    D(2,3,4,5)              0.0            estimate D2E/DX2                !
 ! D10   D(2,3,4,23)           180.0            estimate D2E/DX2                !
 ! D11   D(22,3,4,5)           180.0            estimate D2E/DX2                !
 ! D12   D(22,3,4,23)            0.0            estimate D2E/DX2                !
 ! D13   D(3,4,5,6)            180.0            estimate D2E/DX2                !
 ! D14   D(3,4,5,20)             0.0            estimate D2E/DX2                !
 ! D15   D(23,4,5,6)             0.0            estimate D2E/DX2                !
 ! D16   D(23,4,5,20)          180.0            estimate D2E/DX2                !
 ! D17   D(4,5,6,7)            120.0            estimate D2E/DX2                !
 ! D18   D(4,5,6,8)           -120.0            estimate D2E/DX2                !
 ! D19   D(4,5,6,19)             0.0            estimate D2E/DX2                !
 ! D20   D(20,5,6,7)           -60.0            estimate D2E/DX2                !
 ! D21   D(20,5,6,8)            60.0            estimate D2E/DX2                !
 ! D22   D(20,5,6,19)          180.0            estimate D2E/DX2                !
 ! D23   D(4,5,20,21)            0.0            estimate D2E/DX2                !
 ! D24   D(4,5,20,36)          180.0            estimate D2E/DX2                !
 ! D25   D(6,5,20,21)          180.0            estimate D2E/DX2                !
 ! D26   D(6,5,20,36)            0.0            estimate D2E/DX2                !
 ! D27   D(5,6,8,9)            180.0            estimate D2E/DX2                !
 ! D28   D(7,6,8,9)            -60.0            estimate D2E/DX2                !
 ! D29   D(19,6,8,9)            60.0            estimate D2E/DX2                !
 ! D30   D(6,8,9,10)          -175.6333         estimate D2E/DX2                !
 ! D31   D(6,8,9,18)           -64.0781         estimate D2E/DX2                !
 ! D32   D(6,8,9,24)            59.7115         estimate D2E/DX2                !
 ! D33   D(8,9,10,11)           50.3357         estimate D2E/DX2                !
 ! D34   D(8,9,10,16)          164.3888         estimate D2E/DX2                !
 ! D35   D(8,9,10,25)          -71.2978         estimate D2E/DX2                !
 ! D36   D(18,9,10,11)         -71.8435         estimate D2E/DX2                !
 ! D37   D(18,9,10,16)          42.2095         estimate D2E/DX2                !
 ! D38   D(18,9,10,25)         166.523          estimate D2E/DX2                !
 ! D39   D(24,9,10,11)         172.6545         estimate D2E/DX2                !
 ! D40   D(24,9,10,16)         -73.2925         estimate D2E/DX2                !
 ! D41   D(24,9,10,25)          51.0209         estimate D2E/DX2                !
 ! D42   D(8,9,18,17)         -175.4631         estimate D2E/DX2                !
 ! D43   D(8,9,18,34)           63.7818         estimate D2E/DX2                !
 ! D44   D(8,9,18,35)          -57.6377         estimate D2E/DX2                !
 ! D45   D(10,9,18,17)         -54.3862         estimate D2E/DX2                !
 ! D46   D(10,9,18,34)        -175.1414         estimate D2E/DX2                !
 ! D47   D(10,9,18,35)          63.4391         estimate D2E/DX2                !
 ! D48   D(24,9,18,17)          62.2621         estimate D2E/DX2                !
 ! D49   D(24,9,18,34)         -58.493          estimate D2E/DX2                !
 ! D50   D(24,9,18,35)        -179.9125         estimate D2E/DX2                !
 ! D51   D(9,10,11,12)         157.5134         estimate D2E/DX2                !
 ! D52   D(16,10,11,12)         46.5159         estimate D2E/DX2                !
 ! D53   D(25,10,11,12)        -74.9649         estimate D2E/DX2                !
 ! D54   D(9,10,16,13)        -136.4829         estimate D2E/DX2                !
 ! D55   D(9,10,16,17)         -18.6428         estimate D2E/DX2                !
 ! D56   D(9,10,16,33)         101.0076         estimate D2E/DX2                !
 ! D57   D(11,10,16,13)        -15.4311         estimate D2E/DX2                !
 ! D58   D(11,10,16,17)        102.409          estimate D2E/DX2                !
 ! D59   D(11,10,16,33)       -137.9406         estimate D2E/DX2                !
 ! D60   D(25,10,16,13)         98.8452         estimate D2E/DX2                !
 ! D61   D(25,10,16,17)       -143.3147         estimate D2E/DX2                !
 ! D62   D(25,10,16,33)        -23.6643         estimate D2E/DX2                !
 ! D63   D(10,11,12,13)        -60.0533         estimate D2E/DX2                !
 ! D64   D(10,11,12,26)       -179.4449         estimate D2E/DX2                !
 ! D65   D(10,11,12,27)         58.3057         estimate D2E/DX2                !
 ! D66   D(11,12,13,14)        175.8711         estimate D2E/DX2                !
 ! D67   D(11,12,13,16)         51.2727         estimate D2E/DX2                !
 ! D68   D(11,12,13,28)        -62.9297         estimate D2E/DX2                !
 ! D69   D(26,12,13,14)        -64.1407         estimate D2E/DX2                !
 ! D70   D(26,12,13,16)        171.2608         estimate D2E/DX2                !
 ! D71   D(26,12,13,28)         57.0584         estimate D2E/DX2                !
 ! D72   D(27,12,13,14)         58.0299         estimate D2E/DX2                !
 ! D73   D(27,12,13,16)        -66.5685         estimate D2E/DX2                !
 ! D74   D(27,12,13,28)        179.229          estimate D2E/DX2                !
 ! D75   D(12,13,14,15)       -179.3535         estimate D2E/DX2                !
 ! D76   D(12,13,14,29)         60.6465         estimate D2E/DX2                !
 ! D77   D(16,13,14,15)        -61.559          estimate D2E/DX2                !
 ! D78   D(16,13,14,29)        178.441          estimate D2E/DX2                !
 ! D79   D(28,13,14,15)         60.9125         estimate D2E/DX2                !
 ! D80   D(28,13,14,29)        -59.0875         estimate D2E/DX2                !
 ! D81   D(12,13,16,10)        -21.7748         estimate D2E/DX2                !
 ! D82   D(12,13,16,17)       -137.8384         estimate D2E/DX2                !
 ! D83   D(12,13,16,33)         97.8285         estimate D2E/DX2                !
 ! D84   D(14,13,16,10)       -149.496          estimate D2E/DX2                !
 ! D85   D(14,13,16,17)         94.4404         estimate D2E/DX2                !
 ! D86   D(14,13,16,33)        -29.8927         estimate D2E/DX2                !
 ! D87   D(28,13,16,10)         88.9528         estimate D2E/DX2                !
 ! D88   D(28,13,16,17)        -27.1107         estimate D2E/DX2                !
 ! D89   D(28,13,16,33)       -151.4439         estimate D2E/DX2                !
 ! D90   D(13,14,15,30)        180.0            estimate D2E/DX2                !
 ! D91   D(13,14,15,31)        -60.0            estimate D2E/DX2                !
 ! D92   D(13,14,15,32)         60.0            estimate D2E/DX2                !
 ! D93   D(29,14,15,30)        -60.0            estimate D2E/DX2                !
 ! D94   D(29,14,15,31)         60.0            estimate D2E/DX2                !
 ! D95   D(29,14,15,32)        180.0            estimate D2E/DX2                !
 ! D96   D(10,16,17,18)        -15.1848         estimate D2E/DX2                !
 ! D97   D(13,16,17,18)         95.887          estimate D2E/DX2                !
 ! D98   D(33,16,17,18)       -136.247          estimate D2E/DX2                !
 ! D99   D(16,17,18,9)          42.4505         estimate D2E/DX2                !
 ! D100  D(16,17,18,34)        163.4744         estimate D2E/DX2                !
 ! D101  D(16,17,18,35)        -75.0432         estimate D2E/DX2                !
 ! D102  D(5,20,21,2)            0.0            estimate D2E/DX2                !
 ! D103  D(5,20,21,37)         180.0            estimate D2E/DX2                !
 ! D104  D(36,20,21,2)         180.0            estimate D2E/DX2                !
 ! D105  D(36,20,21,37)          0.0            estimate D2E/DX2                !
 --------------------------------------------------------------------------------
 Trust Radius=3.00D-01 FncErr=1.00D-07 GrdErr=1.00D-06 EigMax=2.50D+02 EigMin=1.00D-04
 Number of steps in this run=    222 maximum allowed number of steps=    222.
 GradGradGradGradGradGradGradGradGradGradGradGradGradGradGradGradGradGrad

 Leave Link  103 at Fri Jul 28 00:37:24 2023, MaxMem=   104857600 cpu:               0.0 elap:               0.0
 (Enter /private/chem/g16E03/g16/l202.exe)
                          Input orientation:                          
 ---------------------------------------------------------------------
 Center     Atomic      Atomic             Coordinates (Angstroms)
 Number     Number       Type             X           Y           Z
 ---------------------------------------------------------------------
      1         35           0        0.000000    0.000000    0.000000
      2          6           0        0.000000    0.000000    1.910000
      3          6           0        1.173638    0.000000    2.587600
      4          6           0        1.173638    0.000000    4.127600
      5          6           0        0.000000    0.000000    4.805200
      6         16           0        0.000000    0.000000    6.585200
      7          8           0       -0.692776    1.199923    7.075067
      8          8           0       -0.787246   -1.363549    7.141867
      9          6           0       -0.787246   -1.363549    8.571867
     10          6           0       -1.377662   -2.594007    9.180283
     11          8           0       -0.869996   -3.843983    8.678348
     12          6           0       -1.244781   -4.640252    9.863990
     13          6           0       -0.438535   -3.902399   10.893512
     14          7           0       -0.569629   -4.299763   12.302702
     15          6           0        0.288477   -3.444215   13.134923
     16          6           0       -0.873910   -2.476520   10.616390
     17          8           0        0.255659   -1.551414   10.655220
     18          6           0        0.603475   -1.462704    9.236862
     19          8           0        1.385552    0.000000    7.075067
     20          6           0       -1.333679    0.000000    4.035200
     21          6           0       -1.333679    0.000000    2.680000
     22          1           0        2.100285    0.000000    2.052600
     23          1           0        2.100285    0.000000    4.662600
     24          1           0       -1.292887   -0.477478    8.894521
     25          1           0       -2.439077   -2.688386    9.083366
     26          1           0       -0.972010   -5.672116    9.788154
     27          1           0       -2.295993   -4.591473   10.057575
     28          1           0        0.582536   -4.034423   10.602164
     29          1           0       -0.290379   -5.254273   12.407244
     30          1           0        0.193054   -3.733453   14.160659
     31          1           0        1.307306   -3.553558   12.826812
     32          1           0       -0.010321   -2.422889   13.023062
     33          1           0       -1.642311   -2.104286   11.261295
     34          1           0        1.226600   -0.619860    9.021852
     35          1           0        1.109315   -2.348125    8.912738
     36          1           0       -2.260326    0.000000    4.570200
     37          1           0       -2.260326    0.000000    2.145000
 ---------------------------------------------------------------------
                    Distance matrix (angstroms):
                    1          2          3          4          5
     1  Br   0.000000
     2  C    1.910000   0.000000
     3  C    2.841320   1.355200   0.000000
     4  C    4.291213   2.509019   1.540000   0.000000
     5  C    4.805200   2.895200   2.509019   1.355200   0.000000
     6  S    6.585200   4.675200   4.166321   2.723458   1.780000
     7  O    7.209461   5.347679   5.006064   3.689292   2.659333
     8  O    7.313363   5.463648   5.142536   3.845794   2.817629
     9  C    8.715269   6.845399   6.443274   5.045378   4.082499
    10  C    9.638694   7.841163   7.530038   6.226364   5.269552
    11  O    9.531360   7.832218   7.486645   6.297774   5.525792
    12  C   10.971769   9.292329   8.962508   7.764461   6.976588
    13  C   11.579708   9.804311   9.317510   7.975298   7.244900
    14  N   13.044881  11.261469  10.766157   9.399959   8.661696
    15  C   13.582048  11.744987  11.130685   9.683904   9.018321
    16  C   10.936389   9.093850   8.647952   7.240856   6.377053
    17  O   10.770606   8.885444   8.266563   6.771956   6.057638
    18  C    9.371409   7.495772   6.832077   5.345012   4.705669
    19  O    7.209461   5.347679   4.492468   2.955075   2.659333
    20  C    4.249887   2.509019   2.895200   2.509019   1.540000
    21  C    2.993510   1.540000   2.509019   2.895200   2.509019
    22  H    2.936727   2.105120   1.070000   2.272510   3.462370
    23  H    5.113808   3.462370   2.272510   1.070000   2.105120
    24  H    9.000669   7.119204   6.788886   5.388438   4.315331
    25  H    9.781823   8.039509   7.904056   6.696174   5.610635
    26  H   11.354544   9.756178   9.414068   8.295696   7.612328
    27  H   11.291945   9.629963   9.429766   8.263448   7.344430
    28  H   11.358776   9.600502   8.992175   7.651532   7.086657
    29  H   13.477070  11.742395  11.232815   9.914799   9.245690
    30  H   14.645826  12.808380  12.199833  10.750000  10.074749
    31  H   13.374002  11.554809  10.839147   9.397975   8.870349
    32  H   13.246534  11.374122  10.778266   9.295235   8.567599
    33  H   11.573330   9.724809   9.358983   7.952810   6.986155
    34  H    9.125929   7.243425   6.464258   4.933633   4.434966
    35  H    9.283381   7.468775   6.747236   5.330607   4.859643
    36  H    5.098608   3.490808   3.965200   3.462370   2.272510
    37  H    3.116103   2.272510   3.462370   3.965200   3.490808
                    6          7          8          9         10
     6  S    0.000000
     7  O    1.469600   0.000000
     8  O    1.670000   2.566082   0.000000
     9  C    2.534929   2.969971   1.430000   0.000000
    10  C    3.919347   4.392598   2.453112   1.494252   0.000000
    11  O    4.462552   5.295556   2.918934   2.484097   1.439481
    12  C    5.816518   6.495418   4.284399   3.551859   2.161534
    13  C    5.829458   6.377998   4.543369   3.457946   2.351383
    14  N    7.176508   7.588800   5.941627   4.752666   3.648564
    15  C    7.405721   7.697580   6.434522   5.129116   4.374706
    16  C    4.811171   5.107839   3.649456   2.329440   1.526425
    17  O    4.363176   4.613771   3.669686   2.337371   2.435196
    18  C    3.087879   3.666499   2.516534   1.544719   2.282094
    19  O    1.469600   2.399847   2.566082   2.969971   4.335454
    20  C    2.877707   3.330370   3.436457   4.768564   5.762177
    21  C    4.126656   4.600781   4.697458   6.072228   6.998892
    22  H    4.995564   5.870790   6.008139   7.259334   8.344391
    23  H    2.847382   3.880851   4.042754   5.047719   6.263741
    24  H    2.689331   2.546414   2.027952   1.070000   2.137415
    25  H    4.406512   4.711877   2.872831   2.178387   1.070000
    26  H    6.586093   7.393493   5.059716   4.480764   3.163671
    27  H    6.197628   6.708646   4.604038   3.860459   2.367032
    28  H    5.722929   6.439349   4.580778   3.623807   2.817609
    29  H    7.847796   8.381569   6.565730   5.485866   4.321166
    30  H    8.447694   8.679201   7.472676   6.149149   5.345057
    31  H    7.300311   7.725185   6.442196   5.223777   4.628927
    32  H    6.878704   6.997797   6.026133   4.641008   4.082384
    33  H    5.384335   5.417003   4.271945   2.917679   2.154177
    34  H    2.797507   3.284142   2.853593   2.193429   3.271779
    35  H    3.487363   4.383288   2.775304   2.163914   2.513383
    36  H    3.028085   3.189261   3.262316   4.476893   5.362913
    37  H    4.982414   5.310611   5.384971   6.733042   7.550045
                   11         12         13         14         15
    11  O    0.000000
    12  C    1.476569   0.000000
    13  C    2.257548   1.501458   0.000000
    14  N    3.665228   2.553248   1.470000   0.000000
    15  C    4.622005   3.805310   2.400500   1.470000   0.000000
    16  C    2.371915   2.320643   1.516403   2.502089   2.937785
    17  O    3.229705   3.523959   2.462888   3.308885   3.119728
    18  C    2.855441   3.729095   3.127680   4.338715   4.384117
    19  O    4.736477   6.019027   5.756434   7.045485   7.056065
    20  C    6.045663   7.450814   7.941438   9.350044   9.864024
    21  C    7.139425   8.552751   9.137384  10.567314  11.126519
    22  H    8.215797   9.681902   9.991799  11.431579  11.745771
    23  H    6.302778   7.731485   7.778084   9.164473   9.323386
    24  H    3.399842   4.274443   4.056595   5.171911   5.411400
    25  H    1.990342   2.417746   2.958483   4.056536   4.942260
    26  H    2.141062   1.070000   2.153674   2.892787   4.213459
    27  H    2.120018   1.070000   2.150294   2.847107   4.179205
    28  H    2.418095   2.061800   1.070000   2.071164   2.617190
    29  H    4.028590   2.784968   2.034920   1.000000   2.034920
    30  H    5.585520   4.620716   3.331921   2.086720   1.070000
    31  H    4.694118   4.058616   2.628174   2.086720   1.070000
    32  H    4.651354   4.052200   2.628174   2.086720   1.070000
    33  H    3.208525   2.922604   2.194892   2.656180   3.005634
    34  H    3.861176   4.793795   4.129267   5.247104   5.076850
    35  H    2.492027   3.420599   2.955516   4.256713   4.438698
    36  H    5.795352   7.112488   7.650615   9.007664   9.576716
    37  H    7.706742   9.063447   9.751108  11.159092  11.795652
                   16         17         18         19         20
    16  C    0.000000
    17  O    1.460567   0.000000
    18  C    2.261324   1.463073   0.000000
    19  O    4.876402   4.062147   2.724795   0.000000
    20  C    7.046744   6.982660   5.740154   4.078604   0.000000
    21  C    8.326514   8.278708   6.991746   5.168252   1.355200
    22  H    9.397739   8.933902   7.482885   5.073068   3.965200
    23  H    7.101169   6.459181   5.030290   2.516116   3.490808
    24  H    2.671431   2.579029   2.164268   3.272985   4.882893
    25  H    2.201090   3.320396   3.283745   5.088072   5.825230
    26  H    3.302641   4.386248   4.528270   6.715046   8.087038
    27  H    2.609142   4.013735   4.343925   6.597784   7.633916
    28  H    2.132721   2.504995   2.911739   5.418655   7.941880
    29  H    3.356126   4.132665   5.022578   7.671261   9.939164
    30  H    3.908982   4.129567   5.437695   8.097305  10.899290
    31  H    3.286895   3.135340   4.213643   6.761396   9.843527
    32  H    2.557486   2.537103   3.953987   6.572481   9.402305
    33  H    1.070000   2.067676   3.090875   5.578573   7.532577
    34  H    3.225195   2.116225   1.070000   2.049260   5.639676
    35  H    2.617651   2.097551   1.070000   2.994500   5.939047
    36  H    6.679200   6.764949   5.667328   4.423436   1.070000
    37  H    8.934190   9.008935   7.786872   6.131720   2.105120
                   21         22         23         24         25
    21  C    0.000000
    22  H    3.490808   0.000000
    23  H    3.965200   2.610000   0.000000
    24  H    6.232970   7.652024   5.445250   0.000000
    25  H    7.032242   8.790045   6.883051   2.497504   0.000000
    26  H    9.101075  10.072273   8.239126   5.280701   3.398772
    27  H    8.742785  10.221962   8.337544   4.391341   2.142731
    28  H    9.094456   9.574715   7.338838   4.368651   3.639877
    29  H   11.104735  11.855012   9.659305   6.013486   4.716868
    30  H   12.168612  12.813325  10.382164   6.367229   5.813706
    31  H   11.070699  11.372785   8.939293   5.629048   5.366311
    32  H   10.705167  11.431365   8.956695   4.740723   4.635789
    33  H    8.840922  10.160468   7.872599   2.893133   2.391523
    34  H    6.867193   7.051101   4.488945   2.526716   4.209485
    35  H    7.094288   7.318278   4.955742   3.044704   3.568749
    36  H    2.105120   5.035200   4.361590   4.456868   5.256239
    37  H    1.070000   4.361590   5.035200   6.835200   7.443138
                   26         27         28         29         30
    26  H    0.000000
    27  H    1.730118   0.000000
    28  H    2.400264   2.982082   0.000000
    29  H    2.738403   3.159547   2.346983   0.000000
    30  H    4.922865   4.875126   3.592377   2.370879   0.000000
    31  H    4.349370   4.661513   2.388636   2.370879   1.747303
    32  H    4.684758   4.326796   2.968042   2.911082   1.747303
    33  H    3.917762   2.839427   3.018249   3.614325   3.798561
    34  H    5.562949   5.408798   3.817256   5.936320   6.096722
    35  H    4.018356   4.235491   2.444434   4.755672   5.504485
    36  H    7.814071   7.155011   7.793781   9.638846  10.579918
    37  H    9.604710   9.148319   9.791938  11.696227  12.819275
                   31         32         33         34         35
    31  H    0.000000
    32  H    1.747303   0.000000
    33  H    3.640257   2.422545   0.000000
    34  H    4.805291   4.559668   3.930556   0.000000
    35  H    4.100275   4.260745   3.625827   1.735673   0.000000
    36  H    9.670958   9.076552   7.041357   5.688592   5.977107
    37  H   11.809187  11.369484   9.376396   7.735242   7.916466
                   36         37
    36  H    0.000000
    37  H    2.425200   0.000000
 Stoichiometry    C13H16BrNO5S
 Framework group  C1[X(C13H16BrNO5S)]
 Deg. of freedom   105
 Full point group                 C1      NOp   1
 Largest Abelian subgroup         C1      NOp   1
 Largest concise Abelian subgroup C1      NOp   1
                         Standard orientation:                         
 ---------------------------------------------------------------------
 Center     Atomic      Atomic             Coordinates (Angstroms)
 Number     Number       Type             X           Y           Z
 ---------------------------------------------------------------------
      1         35           0        6.365680    0.777539   -0.268519
      2          6           0        4.552438    0.198433   -0.110756
      3          6           0        3.954750   -0.446007   -1.142276
      4          6           0        2.492764   -0.912930   -1.015074
      5          6           0        1.803904   -0.679382    0.128383
      6         16           0        0.114076   -1.219072    0.275408
      7          8           0       -0.003703   -2.160138    1.398015
      8          8           0       -0.870173    0.101695    0.550596
      9          6           0       -2.227731   -0.331876    0.668712
     10          6           0       -3.211961    0.782930    0.814621
     11          8           0       -3.105523    1.840764   -0.155825
     12          6           0       -4.493965    2.319356   -0.002747
     13          6           0       -5.209927    1.058945   -0.394076
     14          7           0       -6.676734    1.028988   -0.301990
     15          6           0       -7.166675   -0.294153   -0.714490
     16          6           0       -4.519114    0.056109    0.509569
     17          8           0       -4.223620   -1.188983   -0.194480
     18          6           0       -2.835942   -0.966790   -0.601375
     19          8           0       -0.297157   -1.885858   -0.967977
     20          6           0        2.483095    0.052937    1.300564
     21          6           0        3.769642    0.463829    1.188627
     22          1           0        4.498640   -0.630406   -2.045094
     23          1           0        2.020859   -1.421749   -1.829512
     24          1           0       -2.277371   -1.017165    1.488964
     25          1           0       -3.190612    1.292051    1.755493
     26          1           0       -4.733148    3.144696   -0.640325
     27          1           0       -4.703363    2.611112    1.005187
     28          1           0       -4.934848    0.881066   -1.412698
     29          1           0       -7.062785    1.729417   -0.902293
     30          1           0       -8.234351   -0.315958   -0.647461
     31          1           0       -6.868697   -0.485991   -1.724097
     32          1           0       -6.753600   -1.043612   -0.072166
     33          1           0       -5.045118   -0.178250    1.411398
     34          1           0       -2.344790   -1.873386   -0.887301
     35          1           0       -2.784695   -0.281698   -1.421694
     36          1           0        1.939204    0.237336    2.203382
     37          1           0        4.241547    0.972648    2.003065
 ---------------------------------------------------------------------
 Rotational constants (GHZ):           0.7660110           0.0689961           0.0664542
 Leave Link  202 at Fri Jul 28 00:37:24 2023, MaxMem=   104857600 cpu:               0.0 elap:               0.0
 (Enter /private/chem/g16E03/g16/l301.exe)
 Standard basis: 6-31+G(d,p) (6D, 7F)
 Ernie: Thresh=  0.10000D-02 Tol=  0.10000D-05 Strict=F.
 There are   498 symmetry adapted cartesian basis functions of A   symmetry.
 There are   498 symmetry adapted basis functions of A   symmetry.
   498 basis functions,   863 primitive gaussians,   498 cartesian basis functions
    96 alpha electrons       96 beta electrons
       nuclear repulsion energy      2248.7954096970 Hartrees.
 IExCor= 4336 DFT=T Ex+Corr=M062X ExCW=0 ScaHFX=  0.540000
 ScaDFX=  1.000000  1.000000  1.000000  1.000000 ScalE2=  1.000000  1.000000
 IRadAn=      5 IRanWt=     -1 IRanGd=            0 ICorTp=0 IEmpDi=  4
 NAtoms=   37 NActive=   37 NUniq=   37 SFac= 1.00D+00 NAtFMM=   60 NAOKFM=F Big=F
 Integral buffers will be    131072 words long.
 Raffenetti 2 integral format.
 Two-electron integral symmetry is turned on.
 ------------------------------------------------------------------------------
 Polarizable Continuum Model (PCM)
 =================================
 Model                : PCM.
 Atomic radii         : SMD-Coulomb.
 Polarization charges : Total charges.
 Charge compensation  : None.
 Solution method      : On-the-fly selection.
 Cavity type          : VdW (van der Waals Surface) (Alpha=1.000).
 Cavity algorithm     : GePol (No added spheres)
                        Default sphere list used, NSphG=   37.
                        Lebedev-Laikov grids with approx.  5.0 points / Ang**2.
                        Smoothing algorithm: York/Karplus (Gamma=1.0000).
                        Polarization charges: spherical gaussians, with
                                              point-specific exponents (IZeta= 3).
                        Self-potential: point-specific (ISelfS= 7).
                        Self-field    : sphere-specific E.n sum rule (ISelfD= 2).
 1st derivatives      : Analytical E(r).r(x)/FMM algorithm (CHGder, D1EAlg=3).
                        Cavity 1st derivative terms included.
 Solvent              : Water, Eps=  78.355300 Eps(inf)=   1.777849
 ------------------------------------------------------------------------------
 GePol: Number of generator spheres                  =      37
 GePol: Total number of spheres                      =      37
 GePol: Number of exposed spheres                    =      37 (100.00%)
 GePol: Number of points                             =    2818
 GePol: Average weight of points                     =       0.13
 GePol: Minimum weight of points                     =   0.42D-09
 GePol: Maximum weight of points                     =    0.22025
 GePol: Number of points with low weight             =     158
 GePol: Fraction of low-weight points (<1% of avg)   =       5.61%
 GePol: Cavity surface area                          =    361.308 Ang**2
 GePol: Cavity volume                                =    371.583 Ang**3
 ------------------------------------------------------------------------------
 Atomic radii for non-electrostatic terms: SMD-CDS.
 ------------------------------------------------------------------------------
 PCM non-electrostatic energy =         0.0042957310 Hartrees.
 Nuclear repulsion after PCM non-electrostatic terms =     2248.7997054280 Hartrees.
 Leave Link  301 at Fri Jul 28 00:37:24 2023, MaxMem=   104857600 cpu:               0.1 elap:               0.1
 (Enter /private/chem/g16E03/g16/l302.exe)
 NPDir=0 NMtPBC=     1 NCelOv=     1 NCel=       1 NClECP=     1 NCelD=      1
         NCelK=      1 NCelE2=     1 NClLst=     1 CellRange=     0.0.
 One-electron integrals computed using PRISM.
 One-electron integral symmetry used in STVInt
 NBasis=   498 RedAO= T EigKep=  2.02D-06  NBF=   498
 NBsUse=   498 1.00D-06 EigRej= -1.00D+00 NBFU=   498
 Precomputing XC quadrature grid using
 IXCGrd= 4 IRadAn=           5 IRanWt=          -1 IRanGd=           0 AccXCQ= 0.00D+00.
 Generated NRdTot=       0 NPtTot=           0 NUsed=           0 NTot=          32
 NSgBfM=   475   475   475   475   475 MxSgAt=    37 MxSgA2=    37.
 Leave Link  302 at Fri Jul 28 00:37:27 2023, MaxMem=   104857600 cpu:               2.1 elap:               2.1
 (Enter /private/chem/g16E03/g16/l303.exe)
 DipDrv:  MaxL=1.
 Leave Link  303 at Fri Jul 28 00:37:27 2023, MaxMem=   104857600 cpu:               0.1 elap:               0.1
 (Enter /private/chem/g16E03/g16/l401.exe)
 ExpMin= 3.50D-02 ExpMax= 5.74D+05 ExpMxC= 5.74D+03 IAcc=3 IRadAn=         5 AccDes= 0.00D+00
 Harris functional with IExCor= 1009 and IRadAn=       5 diagonalized for initial guess.
 HarFok:  IExCor= 1009 AccDes= 0.00D+00 IRadAn=         5 IDoV= 1 UseB2=F ITyADJ=14
 ICtDFT=  3500011 ScaDFX=  1.000000  1.000000  1.000000  1.000000
 FoFCou: FMM=F IPFlag=           0 FMFlag=      100000 FMFlg1=           0
         NFxFlg=           0 DoJE=T BraDBF=F KetDBF=T FulRan=T
         wScrn=  0.000000 ICntrl=       500 IOpCl=  0 I1Cent=   200000004 NGrid=           0
         NMat0=    1 NMatS0=      1 NMatT0=    0 NMatD0=    1 NMtDS0=    0 NMtDT0=    0
 Petite list used in FoFCou.
 Harris En= -3904.28768283927    
 JPrj=0 DoOrth=F DoCkMO=F.
 Leave Link  401 at Fri Jul 28 00:38:00 2023, MaxMem=   104857600 cpu:              33.5 elap:              33.6
 (Enter /private/chem/g16E03/g16/l502.exe)
 Integral symmetry usage will be decided dynamically.
 Closed shell SCF:
 Using DIIS extrapolation, IDIIS=  1040.
 NGot=   104857600 LenX=   104353637 LenY=   104105135
 Requested convergence on RMS density matrix=1.00D-08 within 128 cycles.
 Requested convergence on MAX density matrix=1.00D-06.
 Requested convergence on             energy=1.00D-06.
 No special actions if energy rises.
 Fock matrices will be formed incrementally for  20 cycles.

 Cycle   1  Pass 1  IDiag  1:
 FoFJK:  IHMeth= 1 ICntrl=       0 DoSepK=F KAlg= 0 I1Cent=           0 FoldK=F
 IRaf= 750000000 NMat=       1 IRICut=       1 DoRegI=T DoRafI=F ISym2E= 0 IDoP0=0 IntGTp=1.
 FoFCou: FMM=F IPFlag=           0 FMFlag=      100000 FMFlg1=           0
         NFxFlg=           0 DoJE=F BraDBF=F KetDBF=F FulRan=T
         wScrn=  0.000000 ICntrl=         0 IOpCl=  0 I1Cent=           0 NGrid=           0
         NMat0=    1 NMatS0=      1 NMatT0=    0 NMatD0=    1 NMtDS0=    0 NMtDT0=    0
 Symmetry not used in FoFCou.
 Inv3:  Mode=1 IEnd=    23823372.
 Iteration    1 A*A^-1 deviation from unit magnitude is 6.88D-15 for   2801.
 Iteration    1 A*A^-1 deviation from orthogonality  is 2.29D-15 for   2817   2654.
 Iteration    1 A^-1*A deviation from unit magnitude is 7.11D-15 for   2801.
 Iteration    1 A^-1*A deviation from orthogonality  is 4.07D-15 for   1640   1604.
 E= -3904.83363020591    
 DIIS: error= 6.30D-02 at cycle   1 NSaved=   1.
 NSaved= 1 IEnMin= 1 EnMin= -3904.83363020591     IErMin= 1 ErrMin= 6.30D-02
 ErrMax= 6.30D-02  0.00D+00 EMaxC= 1.00D-01 BMatC= 8.69D-01 BMatP= 8.69D-01
 IDIUse=3 WtCom= 3.70D-01 WtEn= 6.30D-01
 Coeff-Com:  0.100D+01
 Coeff-En:   0.100D+01
 Coeff:      0.100D+01
 Gap=     0.209 Goal=   None    Shift=    0.000
 GapD=    0.209 DampG=1.000 DampE=0.500 DampFc=0.5000 IDamp=-1.
 Damping current iteration by 5.00D-01
 RMSDP=4.18D-02 MaxDP=7.01D+00              OVMax= 1.46D-01

 Cycle   2  Pass 1  IDiag  1:
 RMSU=  1.99D-02    CP:  1.08D+00
 E= -3905.05928947536     Delta-E=       -0.225659269446 Rises=F Damp=T
 DIIS: error= 2.96D-02 at cycle   2 NSaved=   2.
 NSaved= 2 IEnMin= 2 EnMin= -3905.05928947536     IErMin= 2 ErrMin= 2.96D-02
 ErrMax= 2.96D-02  0.00D+00 EMaxC= 1.00D-01 BMatC= 1.06D-01 BMatP= 8.69D-01
 IDIUse=3 WtCom= 7.04D-01 WtEn= 2.96D-01
 Coeff-Com: -0.460D-01 0.105D+01
 Coeff-En:   0.867D-01 0.913D+00
 Coeff:     -0.679D-02 0.101D+01
 Gap=     0.305 Goal=   None    Shift=    0.000
 RMSDP=2.76D-02 MaxDP=5.87D+00 DE=-2.26D-01 OVMax= 1.39D-01

 Cycle   3  Pass 1  IDiag  1:
 RMSU=  1.02D-02    CP:  7.70D-01  6.27D-01
 E= -3905.32241496990     Delta-E=       -0.263125494545 Rises=F Damp=F
 DIIS: error= 5.82D-03 at cycle   3 NSaved=   3.
 NSaved= 3 IEnMin= 3 EnMin= -3905.32241496990     IErMin= 3 ErrMin= 5.82D-03
 ErrMax= 5.82D-03  0.00D+00 EMaxC= 1.00D-01 BMatC= 4.32D-02 BMatP= 1.06D-01
 IDIUse=3 WtCom= 9.42D-01 WtEn= 5.82D-02
 Coeff-Com: -0.124D+00 0.428D+00 0.696D+00
 Coeff-En:   0.000D+00 0.000D+00 0.100D+01
 Coeff:     -0.117D+00 0.403D+00 0.714D+00
 Gap=     0.253 Goal=   None    Shift=    0.000
 RMSDP=5.47D-03 MaxDP=1.12D+00 DE=-2.63D-01 OVMax= 3.52D-02

 Cycle   4  Pass 1  IDiag  1:
 RMSU=  2.01D-03    CP:  8.12D-01  8.14D-01  8.90D-01
 E= -3905.35111932578     Delta-E=       -0.028704355877 Rises=F Damp=F
 DIIS: error= 1.44D-03 at cycle   4 NSaved=   4.
 NSaved= 4 IEnMin= 4 EnMin= -3905.35111932578     IErMin= 4 ErrMin= 1.44D-03
 ErrMax= 1.44D-03  0.00D+00 EMaxC= 1.00D-01 BMatC= 6.27D-03 BMatP= 4.32D-02
 IDIUse=3 WtCom= 9.86D-01 WtEn= 1.44D-02
 Coeff-Com: -0.553D-01 0.134D+00 0.356D+00 0.565D+00
 Coeff-En:   0.000D+00 0.000D+00 0.765D-01 0.923D+00
 Coeff:     -0.545D-01 0.132D+00 0.352D+00 0.570D+00
 Gap=     0.250 Goal=   None    Shift=    0.000
 RMSDP=1.47D-03 MaxDP=2.43D-01 DE=-2.87D-02 OVMax= 1.49D-02

 Cycle   5  Pass 1  IDiag  1:
 RMSU=  6.23D-04    CP:  8.03D-01  7.69D-01  9.16D-01  6.77D-01
 E= -3905.35649372112     Delta-E=       -0.005374395336 Rises=F Damp=F
 DIIS: error= 2.93D-04 at cycle   5 NSaved=   5.
 NSaved= 5 IEnMin= 5 EnMin= -3905.35649372112     IErMin= 5 ErrMin= 2.93D-04
 ErrMax= 2.93D-04  0.00D+00 EMaxC= 1.00D-01 BMatC= 1.86D-04 BMatP= 6.27D-03
 IDIUse=3 WtCom= 9.97D-01 WtEn= 2.93D-03
 Coeff-Com: -0.159D-01 0.333D-01 0.964D-01 0.222D+00 0.664D+00
 Coeff-En:   0.000D+00 0.000D+00 0.000D+00 0.000D+00 0.100D+01
 Coeff:     -0.158D-01 0.333D-01 0.961D-01 0.221D+00 0.665D+00
 Gap=     0.251 Goal=   None    Shift=    0.000
 RMSDP=2.41D-04 MaxDP=4.33D-02 DE=-5.37D-03 OVMax= 2.30D-03

 Cycle   6  Pass 1  IDiag  1:
 RMSU=  1.34D-04    CP:  8.01D-01  7.67D-01  9.18D-01  7.12D-01  9.07D-01
 E= -3905.35663716479     Delta-E=       -0.000143443670 Rises=F Damp=F
 DIIS: error= 1.08D-04 at cycle   6 NSaved=   6.
 NSaved= 6 IEnMin= 6 EnMin= -3905.35663716479     IErMin= 6 ErrMin= 1.08D-04
 ErrMax= 1.08D-04  0.00D+00 EMaxC= 1.00D-01 BMatC= 2.36D-05 BMatP= 1.86D-04
 IDIUse=3 WtCom= 9.99D-01 WtEn= 1.08D-03
 Coeff-Com: -0.134D-02 0.121D-02 0.230D-02 0.364D-01 0.299D+00 0.663D+00
 Coeff-En:   0.000D+00 0.000D+00 0.000D+00 0.000D+00 0.000D+00 0.100D+01
 Coeff:     -0.133D-02 0.121D-02 0.230D-02 0.364D-01 0.299D+00 0.663D+00
 Gap=     0.251 Goal=   None    Shift=    0.000
 RMSDP=1.34D-04 MaxDP=2.72D-02 DE=-1.43D-04 OVMax= 9.15D-04

 Cycle   7  Pass 1  IDiag  1:
 RMSU=  5.95D-05    CP:  8.00D-01  7.63D-01  9.20D-01  7.16D-01  9.35D-01
                    CP:  8.84D-01
 E= -3905.35665817014     Delta-E=       -0.000021005348 Rises=F Damp=F
 DIIS: error= 2.51D-05 at cycle   7 NSaved=   7.
 NSaved= 7 IEnMin= 7 EnMin= -3905.35665817014     IErMin= 7 ErrMin= 2.51D-05
 ErrMax= 2.51D-05  0.00D+00 EMaxC= 1.00D-01 BMatC= 1.28D-06 BMatP= 2.36D-05
 IDIUse=1 WtCom= 1.00D+00 WtEn= 0.00D+00
 Coeff-Com:  0.132D-02-0.338D-02-0.110D-01-0.136D-01 0.239D-01 0.198D+00
 Coeff-Com:  0.805D+00
 Coeff:      0.132D-02-0.338D-02-0.110D-01-0.136D-01 0.239D-01 0.198D+00
 Coeff:      0.805D+00
 Gap=     0.251 Goal=   None    Shift=    0.000
 RMSDP=4.29D-05 MaxDP=8.15D-03 DE=-2.10D-05 OVMax= 3.03D-04

 Cycle   8  Pass 1  IDiag  1:
 RMSU=  1.94D-05    CP:  7.99D-01  7.62D-01  9.21D-01  7.15D-01  9.61D-01
                    CP:  9.75D-01  9.71D-01
 E= -3905.35665970669     Delta-E=       -0.000001536551 Rises=F Damp=F
 DIIS: error= 1.10D-05 at cycle   8 NSaved=   8.
 NSaved= 8 IEnMin= 8 EnMin= -3905.35665970669     IErMin= 8 ErrMin= 1.10D-05
 ErrMax= 1.10D-05  0.00D+00 EMaxC= 1.00D-01 BMatC= 1.87D-07 BMatP= 1.28D-06
 IDIUse=1 WtCom= 1.00D+00 WtEn= 0.00D+00
 Coeff-Com:  0.555D-03-0.119D-02-0.410D-02-0.869D-02-0.216D-01 0.738D-02
 Coeff-Com:  0.316D+00 0.712D+00
 Coeff:      0.555D-03-0.119D-02-0.410D-02-0.869D-02-0.216D-01 0.738D-02
 Coeff:      0.316D+00 0.712D+00
 Gap=     0.251 Goal=   None    Shift=    0.000
 RMSDP=2.08D-05 MaxDP=4.26D-03 DE=-1.54D-06 OVMax= 1.90D-04

 Cycle   9  Pass 1  IDiag  1:
 RMSU=  5.07D-06    CP:  7.99D-01  7.61D-01  9.21D-01  7.16D-01  9.68D-01
                    CP:  9.87D-01  1.02D+00  9.86D-01
 E= -3905.35665994384     Delta-E=       -0.000000237150 Rises=F Damp=F
 DIIS: error= 2.24D-06 at cycle   9 NSaved=   9.
 NSaved= 9 IEnMin= 9 EnMin= -3905.35665994384     IErMin= 9 ErrMin= 2.24D-06
 ErrMax= 2.24D-06  0.00D+00 EMaxC= 1.00D-01 BMatC= 1.36D-08 BMatP= 1.87D-07
 IDIUse=1 WtCom= 1.00D+00 WtEn= 0.00D+00
 Coeff-Com:  0.293D-04-0.163D-04-0.117D-03-0.135D-02-0.951D-02-0.168D-01
 Coeff-Com:  0.117D-01 0.200D+00 0.816D+00
 Coeff:      0.293D-04-0.163D-04-0.117D-03-0.135D-02-0.951D-02-0.168D-01
 Coeff:      0.117D-01 0.200D+00 0.816D+00
 Gap=     0.251 Goal=   None    Shift=    0.000
 RMSDP=4.83D-06 MaxDP=1.05D-03 DE=-2.37D-07 OVMax= 6.47D-05

 Cycle  10  Pass 1  IDiag  1:
 RMSU=  1.60D-06    CP:  7.99D-01  7.61D-01  9.22D-01  7.16D-01  9.69D-01
                    CP:  9.93D-01  1.03D+00  1.03D+00  1.10D+00
 E= -3905.35665996495     Delta-E=       -0.000000021115 Rises=F Damp=F
 DIIS: error= 2.09D-06 at cycle  10 NSaved=  10.
 NSaved=10 IEnMin=10 EnMin= -3905.35665996495     IErMin=10 ErrMin= 2.09D-06
 ErrMax= 2.09D-06  0.00D+00 EMaxC= 1.00D-01 BMatC= 2.54D-09 BMatP= 1.36D-08
 IDIUse=1 WtCom= 1.00D+00 WtEn= 0.00D+00
 Coeff-Com: -0.526D-04 0.131D-03 0.422D-03 0.469D-03-0.142D-02-0.728D-02
 Coeff-Com: -0.326D-01-0.599D-02 0.331D+00 0.715D+00
 Coeff:     -0.526D-04 0.131D-03 0.422D-03 0.469D-03-0.142D-02-0.728D-02
 Coeff:     -0.326D-01-0.599D-02 0.331D+00 0.715D+00
 Gap=     0.251 Goal=   None    Shift=    0.000
 RMSDP=1.10D-06 MaxDP=9.36D-05 DE=-2.11D-08 OVMax= 3.89D-05

 Cycle  11  Pass 1  IDiag  1:
 RMSU=  4.97D-07    CP:  7.99D-01  7.61D-01  9.22D-01  7.16D-01  9.70D-01
                    CP:  9.94D-01  1.03D+00  1.06D+00  1.17D+00  1.05D+00
 E= -3905.35665996871     Delta-E=       -0.000000003755 Rises=F Damp=F
 DIIS: error= 3.70D-07 at cycle  11 NSaved=  11.
 NSaved=11 IEnMin=11 EnMin= -3905.35665996871     IErMin=11 ErrMin= 3.70D-07
 ErrMax= 3.70D-07  0.00D+00 EMaxC= 1.00D-01 BMatC= 1.77D-10 BMatP= 2.54D-09
 IDIUse=1 WtCom= 1.00D+00 WtEn= 0.00D+00
 Coeff-Com: -0.120D-04 0.254D-04 0.918D-04 0.221D-03 0.568D-03 0.226D-03
 Coeff-Com: -0.772D-02-0.219D-01-0.225D-01 0.165D+00 0.886D+00
 Coeff:     -0.120D-04 0.254D-04 0.918D-04 0.221D-03 0.568D-03 0.226D-03
 Coeff:     -0.772D-02-0.219D-01-0.225D-01 0.165D+00 0.886D+00
 Gap=     0.251 Goal=   None    Shift=    0.000
 RMSDP=3.32D-07 MaxDP=3.54D-05 DE=-3.76D-09 OVMax= 1.25D-05

 Cycle  12  Pass 1  IDiag  1:
 RMSU=  2.27D-07    CP:  7.99D-01  7.61D-01  9.22D-01  7.16D-01  9.70D-01
                    CP:  9.94D-01  1.03D+00  1.06D+00  1.18D+00  1.13D+00
                    CP:  1.15D+00
 E= -3905.35665996931     Delta-E=       -0.000000000603 Rises=F Damp=F
 DIIS: error= 2.42D-07 at cycle  12 NSaved=  12.
 NSaved=12 IEnMin=12 EnMin= -3905.35665996931     IErMin=12 ErrMin= 2.42D-07
 ErrMax= 2.42D-07  0.00D+00 EMaxC= 1.00D-01 BMatC= 4.18D-11 BMatP= 1.77D-10
 IDIUse=1 WtCom= 1.00D+00 WtEn= 0.00D+00
 Coeff-Com: -0.443D-06-0.109D-05 0.288D-05 0.558D-04 0.407D-03 0.857D-03
 Coeff-Com: -0.137D-03-0.872D-02-0.439D-01-0.449D-02 0.390D+00 0.666D+00
 Coeff:     -0.443D-06-0.109D-05 0.288D-05 0.558D-04 0.407D-03 0.857D-03
 Coeff:     -0.137D-03-0.872D-02-0.439D-01-0.449D-02 0.390D+00 0.666D+00
 Gap=     0.251 Goal=   None    Shift=    0.000
 RMSDP=1.23D-07 MaxDP=1.11D-05 DE=-6.03D-10 OVMax= 5.04D-06

 Cycle  13  Pass 1  IDiag  1:
 RMSU=  8.25D-08    CP:  7.99D-01  7.61D-01  9.22D-01  7.16D-01  9.70D-01
                    CP:  9.94D-01  1.03D+00  1.06D+00  1.19D+00  1.15D+00
                    CP:  1.20D+00  8.42D-01
 E= -3905.35665996940     Delta-E=       -0.000000000089 Rises=F Damp=F
 DIIS: error= 7.43D-08 at cycle  13 NSaved=  13.
 NSaved=13 IEnMin=13 EnMin= -3905.35665996940     IErMin=13 ErrMin= 7.43D-08
 ErrMax= 7.43D-08  0.00D+00 EMaxC= 1.00D-01 BMatC= 6.40D-12 BMatP= 4.18D-11
 IDIUse=1 WtCom= 1.00D+00 WtEn= 0.00D+00
 Coeff-Com:  0.191D-05-0.485D-05-0.136D-04-0.152D-04 0.784D-04 0.327D-03
 Coeff-Com:  0.124D-02 0.601D-05-0.154D-01-0.326D-01 0.230D-01 0.285D+00
 Coeff-Com:  0.739D+00
 Coeff:      0.191D-05-0.485D-05-0.136D-04-0.152D-04 0.784D-04 0.327D-03
 Coeff:      0.124D-02 0.601D-05-0.154D-01-0.326D-01 0.230D-01 0.285D+00
 Coeff:      0.739D+00
 Gap=     0.251 Goal=   None    Shift=    0.000
 RMSDP=7.85D-08 MaxDP=1.44D-05 DE=-8.91D-11 OVMax= 2.09D-06

 Cycle  14  Pass 1  IDiag  1:
 RMSU=  3.08D-08    CP:  7.99D-01  7.61D-01  9.22D-01  7.16D-01  9.70D-01
                    CP:  9.94D-01  1.03D+00  1.06D+00  1.18D+00  1.16D+00
                    CP:  1.23D+00  9.67D-01  9.40D-01
 E= -3905.35665996917     Delta-E=        0.000000000226 Rises=F Damp=F
 DIIS: error= 2.91D-08 at cycle  14 NSaved=  14.
 NSaved=14 IEnMin=13 EnMin= -3905.35665996940     IErMin=14 ErrMin= 2.91D-08
 ErrMax= 2.91D-08  0.00D+00 EMaxC= 1.00D-01 BMatC= 9.76D-13 BMatP= 6.40D-12
 IDIUse=1 WtCom= 1.00D+00 WtEn= 0.00D+00
 Coeff-Com:  0.103D-05-0.216D-05-0.710D-05-0.183D-04-0.360D-04-0.104D-05
 Coeff-Com:  0.634D-03 0.158D-02 0.603D-03-0.146D-01-0.546D-01 0.121D-01
 Coeff-Com:  0.316D+00 0.739D+00
 Coeff:      0.103D-05-0.216D-05-0.710D-05-0.183D-04-0.360D-04-0.104D-05
 Coeff:      0.634D-03 0.158D-02 0.603D-03-0.146D-01-0.546D-01 0.121D-01
 Coeff:      0.316D+00 0.739D+00
 Gap=     0.251 Goal=   None    Shift=    0.000
 RMSDP=2.95D-08 MaxDP=4.92D-06 DE= 2.26D-10 OVMax= 7.89D-07

 Cycle  15  Pass 1  IDiag  1:
 RMSU=  1.16D-08    CP:  7.99D-01  7.61D-01  9.22D-01  7.16D-01  9.70D-01
                    CP:  9.94D-01  1.03D+00  1.06D+00  1.18D+00  1.16D+00
                    CP:  1.25D+00  9.68D-01  1.07D+00  9.50D-01
 E= -3905.35665996927     Delta-E=       -0.000000000100 Rises=F Damp=F
 DIIS: error= 1.27D-08 at cycle  15 NSaved=  15.
 NSaved=15 IEnMin=13 EnMin= -3905.35665996940     IErMin=15 ErrMin= 1.27D-08
 ErrMax= 1.27D-08  0.00D+00 EMaxC= 1.00D-01 BMatC= 6.89D-14 BMatP= 9.76D-13
 IDIUse=1 WtCom= 1.00D+00 WtEn= 0.00D+00
 Coeff-Com: -0.914D-08 0.105D-06 0.603D-07-0.252D-05-0.173D-04-0.408D-04
 Coeff-Com:  0.100D-04 0.397D-03 0.197D-02 0.168D-03-0.161D-01-0.300D-01
 Coeff-Com: -0.668D-02 0.201D+00 0.849D+00
 Coeff:     -0.914D-08 0.105D-06 0.603D-07-0.252D-05-0.173D-04-0.408D-04
 Coeff:      0.100D-04 0.397D-03 0.197D-02 0.168D-03-0.161D-01-0.300D-01
 Coeff:     -0.668D-02 0.201D+00 0.849D+00
 Gap=     0.251 Goal=   None    Shift=    0.000
 RMSDP=9.46D-09 MaxDP=2.00D-06 DE=-1.00D-10 OVMax= 3.44D-07

 Cycle  16  Pass 1  IDiag  1:
 RMSU=  2.92D-09    CP:  7.99D-01  7.61D-01  9.22D-01  7.16D-01  9.70D-01
                    CP:  9.94D-01  1.03D+00  1.06D+00  1.18D+00  1.16D+00
                    CP:  1.24D+00  9.72D-01  1.08D+00  1.05D+00  1.16D+00
 E= -3905.35665996921     Delta-E=        0.000000000063 Rises=F Damp=F
 DIIS: error= 3.16D-09 at cycle  16 NSaved=  16.
 NSaved=16 IEnMin=13 EnMin= -3905.35665996940     IErMin=16 ErrMin= 3.16D-09
 ErrMax= 3.16D-09  0.00D+00 EMaxC= 1.00D-01 BMatC= 1.29D-14 BMatP= 6.89D-14
 IDIUse=1 WtCom= 1.00D+00 WtEn= 0.00D+00
 Coeff-Com: -0.132D-06 0.302D-06 0.854D-06 0.118D-05-0.283D-05-0.168D-04
 Coeff-Com: -0.683D-04-0.189D-04 0.647D-03 0.166D-02-0.680D-03-0.128D-01
 Coeff-Com: -0.371D-01-0.679D-02 0.330D+00 0.725D+00
 Coeff:     -0.132D-06 0.302D-06 0.854D-06 0.118D-05-0.283D-05-0.168D-04
 Coeff:     -0.683D-04-0.189D-04 0.647D-03 0.166D-02-0.680D-03-0.128D-01
 Coeff:     -0.371D-01-0.679D-02 0.330D+00 0.725D+00
 Gap=     0.251 Goal=   None    Shift=    0.000
 RMSDP=2.66D-09 MaxDP=3.78D-07 DE= 6.28D-11 OVMax= 9.54D-08

 Error on total polarization charges =  0.04986
 SCF Done:  E(RM062X) =  -3905.35665997     A.U. after   16 cycles
            NFock= 16  Conv=0.27D-08     -V/T= 2.0070
 KE= 3.878301301433D+03 PE=-1.375364673211D+04 EE= 3.721189065278D+03
 SMD-CDS (non-electrostatic) energy       (kcal/mol) =       2.70
 (included in total energy above)
 Leave Link  502 at Fri Jul 28 01:26:08 2023, MaxMem=   104857600 cpu:            2874.5 elap:            2887.4
 (Enter /private/chem/g16E03/g16/l601.exe)
 Copying SCF densities to generalized density rwf, IOpCl= 0 IROHF=0.

 **********************************************************************

            Population analysis using the SCF density.

 **********************************************************************

 Orbital symmetries:
       Occupied  (A) (A) (A) (A) (A) (A) (A) (A) (A) (A) (A) (A)
                 (A) (A) (A) (A) (A) (A) (A) (A) (A) (A) (A) (A)
                 (A) (A) (A) (A) (A) (A) (A) (A) (A) (A) (A) (A)
                 (A) (A) (A) (A) (A) (A) (A) (A) (A) (A) (A) (A)
                 (A) (A) (A) (A) (A) (A) (A) (A) (A) (A) (A) (A)
                 (A) (A) (A) (A) (A) (A) (A) (A) (A) (A) (A) (A)
                 (A) (A) (A) (A) (A) (A) (A) (A) (A) (A) (A) (A)
                 (A) (A) (A) (A) (A) (A) (A) (A) (A) (A) (A) (A)
       Virtual   (A) (A) (A) (A) (A) (A) (A) (A) (A) (A) (A) (A)
                 (A) (A) (A) (A) (A) (A) (A) (A) (A) (A) (A) (A)
                 (A) (A) (A) (A) (A) (A) (A) (A) (A) (A) (A) (A)
                 (A) (A) (A) (A) (A) (A) (A) (A) (A) (A) (A) (A)
                 (A) (A) (A) (A) (A) (A) (A) (A) (A) (A) (A) (A)
                 (A) (A) (A) (A) (A) (A) (A) (A) (A) (A) (A) (A)
                 (A) (A) (A) (A) (A) (A) (A) (A) (A) (A) (A) (A)
                 (A) (A) (A) (A) (A) (A) (A) (A) (A) (A) (A) (A)
                 (A) (A) (A) (A) (A) (A) (A) (A) (A) (A) (A) (A)
                 (A) (A) (A) (A) (A) (A) (A) (A) (A) (A) (A) (A)
                 (A) (A) (A) (A) (A) (A) (A) (A) (A) (A) (A) (A)
                 (A) (A) (A) (A) (A) (A) (A) (A) (A) (A) (A) (A)
                 (A) (A) (A) (A) (A) (A) (A) (A) (A) (A) (A) (A)
                 (A) (A) (A) (A) (A) (A) (A) (A) (A) (A) (A) (A)
                 (A) (A) (A) (A) (A) (A) (A) (A) (A) (A) (A) (A)
                 (A) (A) (A) (A) (A) (A) (A) (A) (A) (A) (A) (A)
                 (A) (A) (A) (A) (A) (A) (A) (A) (A) (A) (A) (A)
                 (A) (A) (A) (A) (A) (A) (A) (A) (A) (A) (A) (A)
                 (A) (A) (A) (A) (A) (A) (A) (A) (A) (A) (A) (A)
                 (A) (A) (A) (A) (A) (A) (A) (A) (A) (A) (A) (A)
                 (A) (A) (A) (A) (A) (A) (A) (A) (A) (A) (A) (A)
                 (A) (A) (A) (A) (A) (A) (A) (A) (A) (A) (A) (A)
                 (A) (A) (A) (A) (A) (A) (A) (A) (A) (A) (A) (A)
                 (A) (A) (A) (A) (A) (A) (A) (A) (A) (A) (A) (A)
                 (A) (A) (A) (A) (A) (A) (A) (A) (A) (A) (A) (A)
                 (A) (A) (A) (A) (A) (A) (A) (A) (A) (A) (A) (A)
                 (A) (A) (A) (A) (A) (A) (A) (A) (A) (A) (A) (A)
                 (A) (A) (A) (A) (A) (A) (A) (A) (A) (A) (A) (A)
                 (A) (A) (A) (A) (A) (A) (A) (A) (A) (A) (A) (A)
                 (A) (A) (A) (A) (A) (A) (A) (A) (A) (A) (A) (A)
                 (A) (A) (A) (A) (A) (A) (A) (A) (A) (A) (A) (A)
                 (A) (A) (A) (A) (A) (A) (A) (A) (A) (A) (A) (A)
                 (A) (A) (A) (A) (A) (A) (A) (A) (A) (A) (A) (A)
                 (A) (A) (A) (A) (A) (A)
 The electronic state is 1-A.
 Alpha  occ. eigenvalues -- -485.50201 -90.20881 -62.78245 -57.31334 -57.31063
 Alpha  occ. eigenvalues --  -57.31030 -19.73382 -19.67078 -19.67011 -19.66992
 Alpha  occ. eigenvalues --  -19.66747 -14.74839 -10.64926 -10.63414 -10.62775
 Alpha  occ. eigenvalues --  -10.61368 -10.60981 -10.60159 -10.60148 -10.59771
 Alpha  occ. eigenvalues --  -10.59669 -10.59328 -10.59178 -10.57058 -10.54841
 Alpha  occ. eigenvalues --   -8.95241  -8.51713  -6.90635  -6.89594  -6.89557
 Alpha  occ. eigenvalues --   -6.43953  -6.43826  -6.43753  -2.93481  -2.93120
 Alpha  occ. eigenvalues --   -2.93091  -2.92165  -2.92165  -1.29143  -1.20022
 Alpha  occ. eigenvalues --   -1.18259  -1.15663  -1.14471  -1.01338  -0.98819
 Alpha  occ. eigenvalues --   -0.93175  -0.90603  -0.87701  -0.87472  -0.85143
 Alpha  occ. eigenvalues --   -0.82149  -0.78730  -0.75030  -0.72918  -0.71584
 Alpha  occ. eigenvalues --   -0.70189  -0.68518  -0.66479  -0.64388  -0.63020
 Alpha  occ. eigenvalues --   -0.61646  -0.59326  -0.58345  -0.56941  -0.56324
 Alpha  occ. eigenvalues --   -0.55678  -0.54549  -0.54232  -0.53799  -0.51972
 Alpha  occ. eigenvalues --   -0.51611  -0.51100  -0.49810  -0.48204  -0.47887
 Alpha  occ. eigenvalues --   -0.47522  -0.46908  -0.46018  -0.45484  -0.44858
 Alpha  occ. eigenvalues --   -0.43687  -0.43372  -0.42403  -0.42117  -0.41735
 Alpha  occ. eigenvalues --   -0.41122  -0.40797  -0.39581  -0.39080  -0.37786
 Alpha  occ. eigenvalues --   -0.36342  -0.35413  -0.34139  -0.33866  -0.32135
 Alpha  occ. eigenvalues --   -0.29426
 Alpha virt. eigenvalues --   -0.04309  -0.01266   0.00453   0.00861   0.01835
 Alpha virt. eigenvalues --    0.02554   0.02800   0.02984   0.03698   0.03727
 Alpha virt. eigenvalues --    0.04018   0.04716   0.04836   0.05179   0.05491
 Alpha virt. eigenvalues --    0.05715   0.06465   0.06688   0.06880   0.07269
 Alpha virt. eigenvalues --    0.07725   0.08095   0.08361   0.08833   0.09422
 Alpha virt. eigenvalues --    0.09703   0.10218   0.10779   0.10957   0.11258
 Alpha virt. eigenvalues --    0.11521   0.11637   0.11874   0.12494   0.12614
 Alpha virt. eigenvalues --    0.12887   0.13394   0.13780   0.14175   0.14821
 Alpha virt. eigenvalues --    0.15160   0.15679   0.16069   0.16215   0.16463
 Alpha virt. eigenvalues --    0.16759   0.17208   0.17268   0.17839   0.18392
 Alpha virt. eigenvalues --    0.18613   0.18788   0.19145   0.19954   0.20144
 Alpha virt. eigenvalues --    0.20297   0.20566   0.20878   0.21086   0.21601
 Alpha virt. eigenvalues --    0.21917   0.22193   0.22534   0.22913   0.23652
 Alpha virt. eigenvalues --    0.23826   0.23944   0.24329   0.24727   0.25323
 Alpha virt. eigenvalues --    0.25607   0.26026   0.26231   0.26761   0.27258
 Alpha virt. eigenvalues --    0.27447   0.27858   0.28351   0.28698   0.28772
 Alpha virt. eigenvalues --    0.29122   0.29231   0.29794   0.30130   0.30336
 Alpha virt. eigenvalues --    0.30562   0.30985   0.31310   0.31809   0.31951
 Alpha virt. eigenvalues --    0.32675   0.33149   0.33273   0.33576   0.33936
 Alpha virt. eigenvalues --    0.34525   0.34709   0.35300   0.35638   0.36371
 Alpha virt. eigenvalues --    0.36577   0.37187   0.37591   0.37844   0.38797
 Alpha virt. eigenvalues --    0.38976   0.39793   0.40593   0.40939   0.41368
 Alpha virt. eigenvalues --    0.41766   0.42483   0.43410   0.43864   0.44498
 Alpha virt. eigenvalues --    0.45380   0.45967   0.46350   0.47077   0.47650
 Alpha virt. eigenvalues --    0.48870   0.49926   0.50616   0.51465   0.52019
 Alpha virt. eigenvalues --    0.52165   0.52855   0.54238   0.55202   0.59547
 Alpha virt. eigenvalues --    0.61396   0.62732   0.63330   0.64261   0.66634
 Alpha virt. eigenvalues --    0.67029   0.67193   0.68149   0.68698   0.70100
 Alpha virt. eigenvalues --    0.71829   0.72344   0.73562   0.74224   0.74565
 Alpha virt. eigenvalues --    0.75426   0.75836   0.77097   0.77592   0.78574
 Alpha virt. eigenvalues --    0.79408   0.80111   0.80816   0.81263   0.81838
 Alpha virt. eigenvalues --    0.82644   0.82948   0.83453   0.84005   0.85269
[...]
 -0.18713339,0.02358459,0.13609225,-0.01986353,-0.00981303,0.01608981,-
 0.00227916,0.00001693,-0.00385213,0.00005691,-0.00003328,0.00011755,0.
 00000118,0.00000054,-0.00000257,-0.00000235,-0.00000686,-0.00000011,-0
 .00000019,-0.00000040,-0.00000061,0.00000098,0.00000170,-0.00000143,0.
 00018123,0.00017195,0.00000092,0.00069767,-0.00048471,0.00047018,0.000
 23957,0.00006729,0.00051767,-0.00003602,-0.00000344,0.00010338,-0.0006
 6473,0.00151331,0.00018064,0.00043707,-0.00029725,0.00016324,0.0000569
 3,-0.00016728,-0.00003142,-0.00001116,-0.00001390,0.00008008,-0.000382
 03,0.00021509,-0.00074952,0.20668628,0.00000019,0.00000194,0.00000778,
 -0.00000080,-0.00000268,-0.00000314,0.00000353,0.00000586,0.00000421,0
 .00001099,-0.00000531,0.00000583,-0.00000479,-0.00001965,0.00001224,-0
 .00001991,0.00026652,-0.00020489,0.00003308,-0.00008652,0.00001724,0.0
 0005662,-0.00019224,0.00046026,-0.00036895,-0.00044093,-0.00035286,-0.
 00337604,0.00162771,0.00328356,-0.00011011,-0.00024024,-0.00001814,0.0
 0066881,-0.00046324,0.00053887,0.02069223,-0.00263030,-0.01725203,-0.0
 0036762,0.00234958,-0.00061938,0.00023458,-0.00013702,0.00023807,0.028
 01273,-0.04954953,-0.02620766,-0.02576363,-0.00590970,0.01965983,-0.00
 361488,-0.00131234,-0.00204831,-0.00003322,-0.00008862,0.00012759,-0.0
 0001152,0.00000869,0.00000424,0.00000002,0.00000053,0.00000562,0.00000
 042,0.00000064,0.00000242,0.00000198,-0.00000286,-0.00000110,0.0000816
 0,-0.00002534,0.00007902,0.00010397,0.00027160,-0.00074681,-0.00032690
 ,-0.00019169,-0.00048195,-0.00025083,-0.00007870,-0.00014873,0.0014898
 0,-0.00363537,-0.00017169,-0.00039520,0.00023177,-0.00016317,-0.000062
 22,0.00010849,0.00009220,-0.00000372,0.00000951,-0.00009096,0.00013266
 ,0.00014416,0.00034660,-0.01612635,0.06051833,-0.00000236,-0.00000481,
 -0.00001307,0.00000467,0.00000725,0.00000824,-0.00000465,-0.00000904,-
 0.00001190,-0.00002732,0.00000792,-0.00001058,0.00004135,0.00008730,-0
 .00004669,-0.00025447,-0.00056496,0.00010683,-0.00003241,0.00018148,-0
 .00002923,0.00034575,0.00091639,-0.00091989,-0.00043319,-0.00015861,-0
 .00100336,0.01862079,-0.00376391,-0.01125522,-0.00031209,-0.00229571,-
 0.00517605,-0.00023823,0.00176555,-0.00118836,-0.00186690,0.00254955,0
 .00300985,-0.00025973,-0.00020974,0.00014979,-0.00029629,0.00018369,-0
 .00026734,0.13985837,-0.02032896,-0.18765309,-0.00605378,0.00018493,0.
 00878287,-0.00142518,-0.00055064,-0.00044463,0.00016884,0.00008351,0.0
 0003302,0.00002840,-0.00000740,-0.00001216,-0.00000526,-0.00001393,-0.
 00000852,-0.00000133,-0.00000209,-0.00000443,-0.00000173,0.00000509,0.
 00000054,0.00015139,0.00030480,-0.00006674,0.00000245,-0.00038117,0.00
 128658,0.00005773,-0.00020855,0.00008734,-0.00004145,-0.00013036,0.000
 12901,-0.00049069,0.00032993,0.00000259,-0.00006095,-0.00005705,0.0001
 3240,0.00009084,0.00005236,0.00004536,-0.00004614,0.00000213,0.0000641
 1,-0.00041609,0.00022204,-0.00056170,-0.14726364,0.02195966,0.19441970
 ,0.00000147,0.00001386,-0.00001084,0.00000063,-0.00002542,0.00000696,-
 0.00001684,-0.00001849,-0.00000385,-0.00000904,0.00003150,0.00000685,0
 .00007261,0.00010726,-0.00004462,-0.00068494,-0.00100829,-0.00069176,0
 .00003820,0.00016130,0.00008104,-0.00007578,0.00098251,-0.00154866,-0.
 00810034,-0.02251658,-0.00119046,-0.00373003,0.00043623,-0.00081058,0.
 00059818,-0.00037146,-0.00000366,0.00010003,0.00001738,-0.00013346,-0.
 00046368,-0.00025607,0.00006471,0.00010992,-0.00019784,-0.00000176,-0.
 00004136,-0.00002093,-0.00002553,-0.00056345,-0.00079126,0.00062658,-0
 .00567655,-0.01047159,0.00085309,-0.09287217,-0.09535329,-0.01720118,0
 .00023374,0.00020996,0.00061490,0.00001638,0.00000665,-0.00001189,-0.0
 0000311,-0.00000794,0.00000385,-0.00000015,-0.00000034,-0.00000233,0.0
 0000315,0.00000069,-0.00000069,0.00152744,0.00021916,0.00060505,-0.000
 54072,-0.00104258,0.00026074,-0.00000937,-0.00007525,0.00000068,-0.000
 05067,0.00001131,0.00001188,0.00002797,-0.00013072,0.00005911,0.000023
 57,-0.00003150,0.00006190,0.00000897,-0.00000356,0.00001549,0.00001207
 ,0.00000496,0.00000565,0.00000239,0.00000246,-0.00001145,-0.00020193,-
 0.00032038,0.00010249,0.10011801,0.00000027,-0.00000128,0.00000772,0.0
 0000728,0.00000089,-0.00000350,0.00000687,0.,-0.00000227,0.00000704,-0
 .00000926,0.00001728,0.00017231,0.00008553,0.00001088,-0.00106957,-0.0
 0019047,-0.00035393,0.00012577,-0.00004755,-0.00016093,-0.00055605,0.0
 0012587,-0.00105853,0.00367941,0.00572667,0.00084750,0.00130271,0.0006
 0551,0.00080942,-0.00022409,0.00009085,-0.00009887,0.00008138,0.000004
 38,0.00010554,-0.00021141,0.00018115,-0.00021596,-0.00001074,-0.000141
 93,0.00009374,-0.00004371,-0.00001748,-0.00003432,0.00182613,0.0014455
 2,0.00166684,-0.00759270,-0.00852389,0.00343143,-0.10025214,-0.2842598
 0,-0.04118551,0.00007392,-0.00026665,0.00135882,-0.00002924,0.00001494
 ,0.00001475,0.00000301,-0.00000535,0.00001417,-0.00000027,-0.00000023,
 0.00000152,0.00000660,-0.00000626,-0.00000395,-0.00040869,0.00047866,-
 0.00019865,0.00011332,0.00018925,-0.00024737,-0.00001432,-0.00000227,-
 0.00005179,-0.00000248,-0.00002254,0.00000603,-0.00000381,0.00004356,-
 0.00001203,0.00003630,0.00000818,0.00003323,0.00000677,-0.00000467,0.0
 0001302,0.00001562,0.00000740,0.00000217,0.00000189,-0.00000031,-0.000
 00451,-0.00021644,-0.00035328,-0.00007127,0.11114607,0.29997008,-0.000
 00183,-0.00001141,0.00000225,0.00001024,0.00002103,-0.00000289,0.00000
 304,-0.00000220,-0.00000415,-0.00001494,0.00000286,0.00001477,0.000047
 52,0.00005931,-0.00002535,-0.00102044,-0.00080077,-0.00080735,0.000145
 67,0.00012333,0.00015351,0.00041929,0.00114554,-0.00054893,-0.00534387
 ,-0.01879621,0.00075411,-0.00336551,0.00122603,-0.00240801,-0.00002920
 ,-0.00008826,0.00036258,-0.00019376,0.00038541,-0.00043916,0.00101967,
 0.00027698,0.00050200,-0.00009931,0.00022859,0.00001016,0.00007205,-0.
 00001937,0.00002997,-0.00064747,0.00112977,-0.00545459,0.02094125,0.03
 493015,-0.00125304,-0.02361703,-0.05032048,-0.05633415,0.00028762,0.00
 014285,0.00017318,0.00000247,0.00001205,-0.00000059,0.00000169,-0.0000
 0594,0.00000707,-0.00000056,-0.00000055,0.00000059,0.00000669,-0.00000
 073,-0.00000707,0.00101354,0.00069657,0.00049402,-0.00036957,-0.001060
 33,0.00046224,0.00005285,-0.00001504,0.00015459,0.00001429,-0.00002155
 ,0.00002204,-0.00010051,-0.00000966,0.00001833,-0.00006180,0.00001638,
 -0.00007293,-0.00000933,0.00000943,-0.00001325,-0.00001867,-0.00000687
 ,-0.00000259,-0.00000210,0.00000911,0.00000864,0.00079792,0.00088502,0
 .00024888,0.01512611,0.03884841,0.06335730,-0.00000001,0.,-0.00000933,
 -0.00000109,0.00000250,0.00000381,-0.00000364,-0.00001181,-0.00000424,
 -0.00001158,0.00002040,-0.00001880,0.00000783,0.00002967,-0.00002605,-
 0.00073436,-0.00009457,0.00001870,0.00012301,0.00006249,-0.00015706,0.
 00246527,-0.00055647,0.00032476,-0.01953454,0.01956189,0.00893392,0.00
 055437,0.00135365,0.00001415,0.00043899,-0.00063198,-0.00017563,-0.000
 03760,-0.00021288,-0.00005901,-0.00030001,-0.00030668,-0.00010975,0.00
 012713,-0.00001643,-0.00006361,0.00000390,0.00001300,0.00000877,0.0007
 1282,0.00158440,0.00056416,-0.00520863,0.00030333,0.01213586,-0.168035
 85,0.10889384,0.05953766,0.00025946,-0.00014156,0.00007943,0.00001816,
 -0.00000804,-0.00000006,0.00000190,-0.00000246,-0.00000672,0.00000029,
 -0.00000037,-0.00000280,-0.00000069,0.00000197,-0.00000083,-0.00329691
 ,-0.00112870,-0.00246399,0.00001872,-0.00011901,0.00004156,-0.00004030
 ,-0.00003722,0.00001226,-0.00001187,0.00003615,-0.00002569,-0.00005692
 ,-0.00012493,0.00003554,-0.00000822,-0.00001498,0.00000871,-0.00000071
 ,-0.00000791,-0.00000154,-0.00000214,0.00000196,0.00000857,0.00000331,
 -0.00000090,-0.00001544,-0.00015183,-0.00036449,0.00005638,0.01014454,
 -0.00797742,-0.00506581,0.18255371,-0.00000031,-0.00000208,0.00000335,
 -0.00000296,0.00000062,0.00000281,0.00000761,0.00001211,0.00000142,-0.
 00000045,-0.00001641,0.00001410,-0.00005470,-0.00000833,-0.00000091,0.
 00064326,0.00002665,-0.00025326,-0.00003791,-0.00003790,0.00004271,-0.
 00022196,0.00001655,0.00078833,0.00019690,-0.00067932,-0.00130452,0.00
 003868,-0.00010634,-0.00008601,-0.00098588,-0.00033982,-0.00033326,0.0
 0013079,0.00034081,-0.00011777,0.00053781,0.00037195,0.00023646,-0.000
 10729,0.00019315,0.00004472,-0.00002012,-0.00001369,-0.00000337,-0.000
 24122,0.00119822,-0.00006797,-0.01095450,0.01247564,0.00742858,0.11175
 800,-0.16423936,-0.06179995,-0.00019513,0.00012860,-0.00016845,-0.0000
 0114,-0.00000098,-0.00001206,-0.00000426,0.00000116,-0.00000480,-0.000
 00031,0.00000017,0.00000010,-0.00000008,0.00000077,0.00000279,0.000124
 65,0.00099086,0.00032609,0.00009855,0.00009553,-0.00000144,0.00005759,
 0.00000922,-0.00002898,0.00000189,-0.00001866,0.00006500,0.00016308,-0
 .00017715,0.00010234,0.00001469,0.00002478,-0.00002947,-0.00000255,0.0
 0000367,0.00000095,-0.00000059,-0.00000010,-0.00001636,-0.00000408,0.0
 0001133,-0.00000025,-0.00011861,-0.00018027,-0.00008613,0.01929027,-0.
 01512810,-0.00899155,-0.12010747,0.16504810,0.00000055,0.00000356,-0.0
 0001302,0.00000044,0.00000333,0.00000414,-0.00000731,-0.00002510,0.000
 00217,0.00000691,0.00003868,-0.00001477,-0.00003427,-0.00002955,0.0000
 2341,-0.00009992,0.00007855,0.00024207,0.00003748,0.00005968,-0.000101
 16,0.00113637,-0.00013349,0.00205874,-0.01397666,0.01368114,0.00698359
 ,0.00089575,0.00054602,-0.00014478,-0.00025139,-0.00043707,0.00004740,
 -0.00011214,0.00016782,-0.00018364,0.00025476,0.00029730,0.00024020,-0
 .00006486,0.00005716,0.00002933,0.00004967,0.00000705,0.00003780,-0.00
 161041,-0.00302915,-0.00058190,0.02824576,-0.01186676,-0.02617282,0.05
 845953,-0.06083409,-0.07930882,-0.00003177,0.00043900,-0.00012608,0.00
 001156,0.00000123,-0.00002168,-0.00000431,0.00000050,-0.00000403,-0.00
 000014,-0.00000036,-0.00000212,-0.00000103,-0.00000637,0.00001287,-0.0
 0322918,-0.00068117,-0.00212399,0.00011169,-0.00006256,0.00026177,0.00
 003897,0.00001713,0.00006256,0.00000787,0.00000580,0.00003310,-0.00000
 433,0.00025525,-0.00017591,-0.00001697,0.00002002,-0.00005262,-0.00001
 019,0.00000654,-0.00001384,-0.00001487,-0.00000534,-0.00000182,-0.0000
 0126,-0.00001953,0.00002532,0.00060163,0.00077879,0.00016932,0.0031854
 2,-0.00358081,0.00059630,-0.07357705,0.06424761,0.09821237,0.00010349,
 -0.00024687,-0.00044243,0.00173300,0.00167865,-0.00175105,0.00023357,-
 0.00064943,-0.00032948,-0.00188150,0.00167978,-0.00414853,-0.01401393,
 0.01019474,0.01190905,-0.00310152,0.00094334,0.00077313,0.00140054,-0.
 00024141,0.00089710,-0.00002871,-0.00028460,0.00037047,-0.00001051,-0.
 00002927,-0.00020399,0.00002295,0.00004307,0.00003111,-0.00000857,-0.0
 0003111,0.00000384,0.00000151,0.00000801,-0.00000624,-0.00000291,0.000
 00390,0.00000224,0.00000141,-0.00000365,0.00000241,-0.00000141,-0.0000
 0062,-0.00000043,-0.00000883,-0.00000402,-0.00000841,0.00000641,-0.000
 01538,0.00003179,-0.00003849,0.00001132,-0.00001895,0.00055650,-0.0000
 7734,-0.00012145,-0.23333664,0.10381727,0.10577737,0.00753961,-0.00184
 179,-0.00386907,-0.00006800,-0.00021103,0.00017221,-0.00044827,0.00054
 696,0.00065335,0.00001048,0.00000040,0.00000342,-0.00000362,-0.0000083
 3,0.00000296,0.00000059,-0.00000285,0.00000069,-0.00000126,-0.00000216
 ,0.00000174,0.00000093,-0.00000146,0.00000046,0.00000044,-0.00000019,0
 .00000129,0.00000026,-0.00000002,0.00000054,0.00000028,0.00000027,-0.0
 0000018,0.00000014,-0.00000010,-0.00000034,0.00000097,-0.00000152,0.00
 000456,0.00000109,0.00000071,0.00000076,0.00000411,-0.00000241,0.00000
 410,0.24147734,0.00002681,-0.00026325,-0.00007778,0.00170904,0.0062702
 4,-0.00251795,-0.00060671,-0.00089700,0.00027812,0.00163747,0.00506223
 ,-0.00077385,0.00295586,0.00175772,-0.00222181,-0.00003341,-0.00254847
 ,0.00089404,-0.00022532,-0.00021849,-0.00085864,-0.00014926,-0.0000104
 9,0.00073617,-0.00008826,-0.00017020,-0.00006419,0.00001503,0.00004231
 ,0.00005950,-0.00000594,-0.00000327,-0.00000945,0.00000214,-0.00000080
 ,0.00000356,0.00000084,0.00000198,0.00000181,-0.00000047,-0.00000211,-
 0.00000011,-0.00000027,-0.00000032,0.00000055,-0.00000694,-0.00001217,
 -0.00000464,0.00000120,-0.00000319,0.00000489,-0.00001421,-0.00000440,
 -0.00000583,-0.00033124,0.00021030,-0.00025156,0.10452288,-0.09788185,
 -0.06367440,0.00593788,0.00245087,-0.00283956,-0.00019677,-0.00062900,
 0.00018018,0.00015891,0.00040376,-0.00017382,-0.00000101,0.00000253,0.
 00000884,-0.00000424,-0.00000687,0.00000429,0.00000074,-0.00000098,0.0
 0000030,-0.00000066,-0.00000075,0.00000071,0.00000022,-0.00000125,0.00
 000027,0.00000036,-0.00000012,0.00000065,0.00000004,-0.00000008,0.0000
 0008,-0.00000019,0.00000019,-0.00000035,-0.00000003,-0.00000013,-0.000
 00013,0.00000121,-0.00000017,0.00000288,0.00000268,0.00000242,0.000003
 20,0.00000222,-0.00000101,0.00000032,-0.11379603,0.08999953,0.00056560
 ,-0.00045427,-0.00108777,-0.00160130,-0.00281222,-0.00291676,-0.000397
 21,0.00022451,-0.00086445,-0.00370342,-0.00085027,-0.00131562,-0.01184
 305,0.00680694,0.01139680,-0.00154917,0.00156851,-0.00015891,-0.000072
 99,-0.00003241,-0.00055717,0.00011564,-0.00023215,-0.00001628,0.000057
 33,0.00007006,-0.00009103,0.00000587,0.00000819,-0.00000731,-0.0000082
 2,-0.00001919,0.00000736,0.00000124,0.00000449,-0.00000254,-0.00000182
 ,0.00000226,0.00000137,0.00000181,-0.00000130,0.00000143,-0.00000117,-
 0.00000010,-0.00000072,-0.00000227,0.00000377,-0.00000282,0.00000399,-
 0.00000952,0.00001628,-0.00001359,0.00000200,0.00000084,0.00035869,-0.
 00008614,0.00040968,0.10585202,-0.06352350,-0.12143554,0.02268875,-0.0
 1258844,-0.00854563,0.00016152,0.00018451,0.00003604,-0.00064711,0.000
 29956,0.00062217,0.00000162,-0.00000280,0.00000371,-0.00000084,0.00000
 028,-0.00000018,0.00000005,-0.00000154,0.00000007,-0.00000085,-0.00000
 125,0.00000097,0.00000056,-0.00000038,0.00000030,0.00000005,-0.0000001
 6,0.00000059,0.00000004,-0.00000005,0.00000037,0.00000035,-0.00000006,
 -0.00000006,0.00000017,-0.00000005,-0.00000002,-0.00000020,-0.00000073
 ,0.00000100,0.00000150,-0.00000227,0.00000008,0.00000064,-0.00000049,0
 .00000348,-0.11037936,0.06982280,0.12344407,0.00018381,-0.00121366,-0.
 00069375,-0.01483073,0.00278512,-0.01235947,-0.00108754,0.00338477,0.0
 0227259,0.00007859,-0.00016061,0.00091791,0.00229768,0.00182607,-0.000
 16010,0.00023940,0.00011495,0.00017183,-0.00002984,0.00000778,-0.00002
 387,-0.00001056,-0.00000201,-0.00003432,0.00000095,-0.00000078,-0.0000
 0039,-0.00000088,-0.00000061,-0.00000063,0.00000105,0.00000085,0.00000
 137,0.00000044,0.00000035,-0.00000077,0.00000005,0.00000008,-0.0000002
 4,-0.00000021,-0.00000032,0.00000003,0.00000021,-0.00000013,0.00000003
 ,0.00000074,0.,0.00000043,-0.00000076,-0.00000049,0.00000050,0.0000015
 8,-0.00000024,-0.00000065,0.00011931,0.00001809,0.00020769,0.00381027,
 0.00081415,0.00142245,-0.27246630,0.04754582,-0.12770215,-0.00055888,0
 .00002474,-0.00055868,-0.00009263,-0.00024940,-0.00001107,0.00000072,0
 .00000040,-0.00000068,0.00000036,0.00000033,-0.00000033,-0.00000014,0.
 ,-0.00000004,0.00000013,0.00000002,0.00000007,-0.00000010,0.00000005,0
 .00000003,0.00000007,0.00000010,0.,0.00000002,0.00000005,-0.00000006,-
 0.00000011,0.00000003,0.00000007,0.00000003,-0.00000009,0.00000003,0.0
 0000003,-0.00000014,-0.00000010,-0.00000027,-0.00000029,-0.00000095,-0
 .00000059,0.00000014,-0.00000038,-0.00014145,-0.00151456,0.00040512,0.
 28248554,-0.00063639,-0.00159126,0.00103227,0.01090107,0.00081676,0.00
 642951,0.00340845,0.00404224,-0.00290262,-0.00028848,-0.00108923,-0.00
 028179,0.00172927,0.00573174,-0.00349952,-0.00034746,0.00061467,0.0003
 0730,0.00006207,-0.00010521,-0.00009168,0.00008008,0.00005965,-0.00032
 213,0.00003802,0.00003340,0.00008120,-0.00000787,-0.00002268,-0.000024
 47,-0.00000083,0.00001111,-0.00000065,0.00000142,-0.00000465,0.0000029
 9,0.00000078,-0.00000198,-0.00000154,-0.00000108,0.00000155,-0.0000016
 7,0.00000097,0.00000066,0.00000042,0.00000495,0.00000567,0.00000510,-0
 .00000163,0.00000684,-0.00001646,0.00001568,-0.00000668,0.00000916,-0.
 00018361,-0.00020380,-0.00014221,-0.00706436,0.00602314,-0.00516800,0.
 04698018,-0.05098995,0.02009945,0.00040185,-0.00003992,0.00040874,-0.0
 0023464,-0.00058489,0.00024027,0.00000020,0.00000045,-0.00001366,0.000
 00189,0.00000389,-0.00000074,-0.00000019,0.00000111,-0.00000028,0.0000
 0044,0.00000088,-0.00000070,-0.00000074,0.00000102,-0.00000011,0.00000
 004,0.00000024,-0.00000058,-0.00000018,0.00000007,-0.00000035,-0.00000
 032,-0.00000023,0.00000005,-0.00000001,-0.00000018,0.00000033,-0.00000
 019,0.00000068,-0.00000214,-0.00000078,0.00000048,-0.00000110,-0.00000
 121,-0.00000037,-0.00000112,-0.00147684,-0.00354768,0.00162141,-0.0533
 8056,0.04083249,0.00096690,0.00047431,0.00077022,0.01502591,-0.0037165
 7,0.00890535,0.00210381,-0.00293671,-0.00081683,0.00058811,-0.00002824
 ,-0.00058726,-0.00016520,-0.00325162,-0.00381319,-0.00096545,0.0004471
 2,0.00128414,0.00028438,-0.00029925,-0.00031915,0.00017787,0.00015880,
 -0.00059211,-0.00001413,0.00007739,0.00019800,-0.00002016,-0.00005207,
 -0.00005092,-0.00000121,0.00002328,-0.00000493,-0.00000159,-0.00000910
 ,0.00000674,0.00000141,-0.00000442,-0.00000304,-0.00000118,0.00000422,
 -0.00000201,0.00000113,0.00000108,0.00000083,0.00000494,0.00000725,0.0
 0000697,0.00000077,0.00002299,-0.00003908,0.00003214,-0.00001360,0.000
 01248,-0.00067811,-0.00024208,-0.00092717,-0.02516128,0.00464228,-0.01
 052501,-0.12959733,0.02076734,-0.12853956,0.00065601,-0.00003613,0.000
 62255,-0.00002185,0.00024132,0.00002916,-0.00000196,-0.00000500,-0.000
 01829,0.00000595,0.00000775,-0.00000150,-0.00000027,0.00000296,-0.0000
 0037,0.00000181,0.00000211,-0.00000187,-0.00000080,0.00000188,-0.00000
 033,-0.00000056,0.00000041,-0.00000143,-0.00000029,0.00000023,-0.00000
 065,-0.00000028,-0.00000026,-0.00000012,-0.00000018,-0.00000002,0.0000
 0034,-0.00000037,0.00000248,-0.00000450,-0.00000125,0.00000401,0.00000
 146,-0.00000147,-0.00000036,-0.00000291,0.00063528,0.00147093,0.001056
 20,0.13614850,-0.01776470,0.13335782\\-0.00000819,0.00000688,0.0000044
 5,-0.00000497,0.00000827,-0.00000359,-0.00000465,0.00000174,-0.0000032
 6,-0.00000048,-0.00000432,0.00000311,-0.00000051,0.00000823,0.00000353
 ,-0.00000173,-0.00000381,0.00000799,0.00000497,0.00000163,0.00000119,-
 0.00000041,0.00000198,-0.00000443,0.00000169,-0.00000233,0.00000516,0.
 00000098,-0.00000550,-0.00000875,-0.00000283,0.00000311,0.00000537,-0.
 00000236,-0.00000541,-0.00000249,-0.00000119,-0.00000348,-0.00000122,0
 .00000403,0.00000113,-0.00000430,0.00000153,-0.00000418,-0.00000438,0.
 00000204,-0.00000135,0.00000466,0.00000097,-0.00000523,0.00000618,0.00
 000403,0.00000414,-0.00001262,0.00000554,0.00000006,-0.00000230,-0.000
 00695,0.00000763,0.00000335,-0.00000667,0.00000220,0.00000107,-0.00000
 445,0.00000127,-0.00000185,-0.00000143,0.00000026,-0.00000115,0.000004
 41,0.00000331,0.00000387,0.00000002,0.00000413,0.00000044,-0.00000223,
 -0.00000031,-0.00000191,-0.00000268,0.00000195,-0.00000030,0.00000230,
 -0.00000358,-0.00000345,-0.00000218,-0.00000458,-0.00000212,0.00000342
 ,-0.00000639,-0.00000268,0.00000369,-0.00000569,-0.00000365,0.00000383
 ,-0.00000423,-0.00000025,0.00000506,-0.00000118,0.00000302,0.00000620,
 -0.00000435,0.00000169,0.00000358,-0.00000381,0.00000096,-0.00000047,0
 .00000378,0.00000298,-0.00000390,0.00000805,0.00000570\\\@


 REFRAIN FROM ILLUSIONS, INSIST ON WORK AND NOT WORDS,
 PATIENTLY SEEK DIVINE AND SCIENTIFIC TRUTH.
 LAST WORDS OF MARIA MENDELEEVA TO HER SON DMITRI, C. 1850
 Job cpu time:       0 days  7 hours 46 minutes 28.4 seconds.
 Elapsed time:       0 days  7 hours 48 minutes  6.6 seconds.
 File lengths (MBytes):  RWF=   1151 Int=      0 D2E=      0 Chk=     33 Scr=      1
 Normal termination of Gaussian 16 at Sat Jul 29 14:24:17 2023.
 
 Sat Jul 29 02:24:17 PM IDT 2023
 ark
 135481.841u 61.151s 37:46:52.81 99.6%	0+0k 536+45809736io 7pf+0w
 
 ****** xrung16 messages ******
 Job 2-20_neutral_pka is run from:
 /var/spool/scratch/tchem07/g16/2-20_neutral_pka
 135481.834u 61.138s 37:46:52.78 99.6%	0+0k 536+45809704io 7pf+0w
