 cputime      unlimited
 filesize     unlimited
 datasize     unlimited
 stacksize    unlimited
 coredumpsize 0 kbytes
 memoryuse    256000 kbytes
 vmemoryuse   unlimited
 descriptors  1024 
 memorylocked 8192 kbytes
 maxproc      382511 
 maxlocks     unlimited
 maxsignal    382511 
 maxmessage   819200 
 maxnice      0 
 maxrtprio    0 
 maxrttime    unlimited
 Tue Aug  8 04:15:38 AM IDT 2023
 ark
 
        *=*=*=*=*=*=*=*=*=*=*=*=*=*=*=*=*
        * xrung16: Running g16          *
        * (Command = time /bin/nice g16 *
        *=*=*=*=*=*=*=*=*=*=*=*=*=*=*=*=*
        g16root=/private/chem/g16E03
        g16 = /private/chem/g16E03/g16/g16
 
 Entering Gaussian System, Link 0=g16
 Initial command:
 /private/chem/g16E03/g16/l1.exe "/var/spool/scratch/tchem07/g16/2-20_charged_pka/Gau-1255409.inp" -scrdir="/var/spool/scratch/tchem07/g16/2-20_charged_pka/"
 Entering Link 1 = /private/chem/g16E03/g16/l1.exe PID=   1255410.
  
 Copyright (c) 1988,1990,1992,1993,1995,1998,2003,2009,2016,
            Gaussian, Inc.  All Rights Reserved.
  
 This is part of the Gaussian(R) 16 program.  It is based on
 the Gaussian(R) 09 system (copyright 2009, Gaussian, Inc.),
 the Gaussian(R) 03 system (copyright 2003, Gaussian, Inc.),
 the Gaussian(R) 98 system (copyright 1998, Gaussian, Inc.),
 the Gaussian(R) 94 system (copyright 1995, Gaussian, Inc.),
 the Gaussian 92(TM) system (copyright 1992, Gaussian, Inc.),
 the Gaussian 90(TM) system (copyright 1990, Gaussian, Inc.),
 the Gaussian 88(TM) system (copyright 1988, Gaussian, Inc.),
 the Gaussian 86(TM) system (copyright 1986, Carnegie Mellon
 University), and the Gaussian 82(TM) system (copyright 1983,
 Carnegie Mellon University). Gaussian is a federally registered
 trademark of Gaussian, Inc.
  
 This software contains proprietary and confidential information,
 including trade secrets, belonging to Gaussian, Inc.
  
 This software is provided under written license and may be
 used, copied, transmitted, or stored only in accord with that
 written license.
  
 The following legend is applicable only to US Government
 contracts under FAR:
  
                    RESTRICTED RIGHTS LEGEND
  
 Use, reproduction and disclosure by the US Government is
 subject to restrictions as set forth in subparagraphs (a)
 and (c) of the Commercial Computer Software - Restricted
 Rights clause in FAR 52.227-19.
  
 Gaussian, Inc.
 340 Quinnipiac St., Bldg. 40, Wallingford CT 06492
  
  
 ---------------------------------------------------------------
 Warning -- This program may not be used in any manner that
 competes with the business of Gaussian, Inc. or will provide
 assistance to any competitor of Gaussian, Inc.  The licensee
 of this program is prohibited from giving any competitor of
 Gaussian, Inc. access to this program.  By using this program,
 the user acknowledges that Gaussian, Inc. is engaged in the
 business of creating and licensing software in the field of
 computational chemistry and represents and warrants to the
 licensee that it is not a competitor of Gaussian, Inc. and that
 it will not use this program in any manner prohibited above.
 ---------------------------------------------------------------
  

 Cite this work as:
 Gaussian 16, Revision A.03,
 M. J. Frisch, G. W. Trucks, H. B. Schlegel, G. E. Scuseria, 
 M. A. Robb, J. R. Cheeseman, G. Scalmani, V. Barone, 
 G. A. Petersson, H. Nakatsuji, X. Li, M. Caricato, A. V. Marenich, 
 J. Bloino, B. G. Janesko, R. Gomperts, B. Mennucci, H. P. Hratchian, 
 J. V. Ortiz, A. F. Izmaylov, J. L. Sonnenberg, D. Williams-Young, 
 F. Ding, F. Lipparini, F. Egidi, J. Goings, B. Peng, A. Petrone, 
 T. Henderson, D. Ranasinghe, V. G. Zakrzewski, J. Gao, N. Rega, 
 G. Zheng, W. Liang, M. Hada, M. Ehara, K. Toyota, R. Fukuda, 
 J. Hasegawa, M. Ishida, T. Nakajima, Y. Honda, O. Kitao, H. Nakai, 
 T. Vreven, K. Throssell, J. A. Montgomery, Jr., J. E. Peralta, 
 F. Ogliaro, M. J. Bearpark, J. J. Heyd, E. N. Brothers, K. N. Kudin, 
 V. N. Staroverov, T. A. Keith, R. Kobayashi, J. Normand, 
 K. Raghavachari, A. P. Rendell, J. C. Burant, S. S. Iyengar, 
 J. Tomasi, M. Cossi, J. M. Millam, M. Klene, C. Adamo, R. Cammi, 
 J. W. Ochterski, R. L. Martin, K. Morokuma, O. Farkas, 
 J. B. Foresman, and D. J. Fox, Gaussian, Inc., Wallingford CT, 2016.
 
 ******************************************
 Gaussian 16:  ES64L-G16RevA.03 25-Dec-2016
                 8-Aug-2023 
 ******************************************
 %chk=/home/ch/tchem07/g16/2-20_charged_pka.chk
 -------------------------------------------------------
 #P M062X/6-31+G(d,p) Opt Freq SCRF=(SMD, Solvent=Water)
 -------------------------------------------------------
 1/18=20,19=15,26=3,38=1/1,3;
 2/9=110,12=2,17=6,18=5,40=1/2;
 3/5=1,6=6,7=111,11=2,25=1,30=1,70=32201,71=1,72=1,74=-55/1,2,3;
 4//1;
 5/5=2,38=5,53=1/2;
 6/7=2,8=2,9=2,10=2,28=1/1;
 7//1,2,3,16;
 1/18=20,19=15,26=3/3(2);
 2/9=110/2;
 99//99;
 2/9=110/2;
 3/5=1,6=6,7=111,11=2,25=1,30=1,70=32205,71=1,72=1,74=-55/1,2,3;
 4/5=5,16=3,69=1/1;
 5/5=2,38=5,53=1/2;
 7//1,2,3,16;
 1/18=20,19=15,26=3/3(-5);
 2/9=110/2;
 6/7=2,8=2,9=2,10=2,19=2,28=1/1;
 99/9=1/99;
 Leave Link    1 at Tue Aug  8 04:15:38 2023, MaxMem=           0 cpu:               0.0 elap:               0.0
 (Enter /private/chem/g16E03/g16/l101.exe)
 ----------------
 2-20_charged_pka
 ----------------
 Symbolic Z-matrix:
 Charge =  1 Multiplicity = 1
 C
 N                    1    B1
 C                    2    B2       1    A1
 C                    3    B3       2    A2       1    D1       0
 O                    4    B4       3    A3       2    D2       0
 C                    5    B5       4    A4       3    D3       0
 C                    3    B6       2    A5       1    D4       0
 O                    7    B7       3    A6       2    D5       0
 C                    8    B8       7    A7       3    D6       0
 C                    6    B9       5    A8       4    D7       0
 O                    10   B10      6    A9       5    D8       0
 S                    11   B11      10   A10      6    D9       0
 O                    12   B12      11   A11      10   D10      0
 O                    12   B13      11   A12      10   D11      0
 C                    12   B14      11   A13      10   D12      0
 C                    15   B15      12   A14      11   D13      0
 C                    16   B16      15   A15      12   D14      0
 C                    17   B17      16   A16      15   D15      0
 Br                   18   B18      17   A17      16   D16      0
 C                    18   B19      17   A18      16   D17      0
 C                    20   B20      18   A19      17   D18      0
 H                    1    B21      2    A20      3    D19      0
 H                    1    B22      2    A21      3    D20      0
 H                    1    B23      2    A22      3    D21      0
 H                    2    B24      1    A23      3    D22      0
 H                    2    B25      1    A24      3    D23      0
 H                    3    B26      2    A25      1    D24      0
 H                    4    B27      3    A26      2    D25      0
 H                    4    B28      3    A27      2    D26      0
 H                    6    B29      5    A28      4    D27      0
 H                    7    B30      3    A29      2    D28      0
 H                    9    B31      8    A30      7    D29      0
 H                    9    B32      8    A31      7    D30      0
 H                    10   B33      6    A32      5    D31      0
 H                    16   B34      15   A33      12   D32      0
 H                    17   B35      16   A34      15   D33      0
 H                    20   B36      18   A35      17   D34      0
 H                    21   B37      20   A36      18   D35      0
       Variables:
  B1                    1.47                     
  B2                    1.47                     
  B3                    1.52569                  
  B4                    1.44204                  
  B5                    1.47421                  
  B6                    1.4928                   
  B7                    1.4725                   
  B8                    1.44172                  
  B9                    1.49418                  
  B10                   1.43                     
  B11                   1.67                     
  B12                   1.4696                   
  B13                   1.4696                   
  B14                   1.78                     
  B15                   1.3552                   
  B16                   1.54                     
  B17                   1.3552                   
  B18                   1.91                     
  B19                   1.54                     
  B20                   1.3552                   
  B21                   1.07                     
  B22                   1.07                     
  B23                   1.07                     
  B24                   1.                       
  B25                   1.                       
  B26                   1.07                     
  B27                   1.07                     
  B28                   1.07                     
  B29                   1.07                     
  B30                   1.07                     
  B31                   1.07                     
  B32                   1.07                     
  B33                   1.07                     
  B34                   1.07                     
  B35                   1.07                     
  B36                   1.07                     
  B37                   1.07                     
  A1                  109.47122                  
  A2                  111.52407                  
  A3                  101.09619                  
  A4                  104.36071                  
  A5                  112.36769                  
  A6                  111.76432                  
  A7                  104.33086                  
  A8                  111.75717                  
  A9                  113.82874                  
  A10                 109.47122                  
  A11                 109.47122                  
  A12                 109.47122                  
  A13                 109.47122                  
  A14                 120.                       
  A15                 120.                       
  A16                 120.                       
  A17                 120.                       
  A18                 120.                       
  A19                 120.                       
  A20                 109.47122                  
  A21                 109.47122                  
  A22                 109.47122                  
  A23                 109.47122                  
  A24                 109.47122                  
  A25                 107.39674                  
  A26                 113.0954                   
  A27                 110.55853                  
  A28                 106.79024                  
  A29                 114.88438                  
  A30                 111.1274                   
  A31                 112.52324                  
  A32                 112.1212                   
  A33                 120.                       
  A34                 120.                       
  A35                 120.                       
  A36                 120.                       
  D1                   65.87824                  
  D2                   62.38961                  
  D3                   41.36187                  
  D4                  174.27937                  
  D5                  177.02314                  
  D6                   96.43613                  
  D7                   96.61971                  
  D8                   55.06479                  
  D9                   64.66701                  
  D10                 -60.                       
  D11                  60.                       
  D12                -180.                       
  D13                -120.                       
  D14                -180.                       
  D15                   0.                       
  D16                -180.                       
  D17                   0.                       
  D18                   0.                       
  D19                -180.                       
  D20                 -60.                       
  D21                  60.                       
  D22                -120.                       
  D23                 120.                       
  D24                 -60.15761                  
  D25                 -58.24481                  
  D26                -179.84356                  
  D27                -137.04935                  
  D28                  55.15368                  
  D29                 -75.93112                  
  D30                 162.42984                  
  D31                 177.40514                  
  D32                   0.                       
  D33                 180.                       
  D34                 180.                       
  D35                -180.                       
 
    10 tetrahedral angles replaced.
 ITRead=  0  0  0  0  0  0  0  0  0  0  0  0  0  0  0  0  0  0  0  0
 ITRead=  0  0  0  0  0  0  0  0  0  0  0  0  0  0  0  0  0  0
 MicOpt= -1 -1 -1 -1 -1 -1 -1 -1 -1 -1 -1 -1 -1 -1 -1 -1 -1 -1 -1 -1
 MicOpt= -1 -1 -1 -1 -1 -1 -1 -1 -1 -1 -1 -1 -1 -1 -1 -1 -1 -1
 NAtoms=     38 NQM=       38 NQMF=       0 NMMI=      0 NMMIF=      0
                NMic=       0 NMicF=      0.
                    Isotopes and Nuclear Properties:
 (Nuclear quadrupole moments (NQMom) in fm**2, nuclear magnetic moments (NMagM)
  in nuclear magnetons)

  Atom         1           2           3           4           5           6           7           8           9          10
 IAtWgt=          12          14          12          12          16          12          12          16          12          12
 AtmWgt=  12.0000000  14.0030740  12.0000000  12.0000000  15.9949146  12.0000000  12.0000000  15.9949146  12.0000000  12.0000000
 NucSpn=           0           2           0           0           0           0           0           0           0           0
 AtZEff=  -0.0000000  -0.0000000  -0.0000000  -0.0000000  -0.0000000  -0.0000000  -0.0000000  -0.0000000  -0.0000000  -0.0000000
 NQMom=    0.0000000   2.0440000   0.0000000   0.0000000   0.0000000   0.0000000   0.0000000   0.0000000   0.0000000   0.0000000
 NMagM=    0.0000000   0.4037610   0.0000000   0.0000000   0.0000000   0.0000000   0.0000000   0.0000000   0.0000000   0.0000000
 AtZNuc=   6.0000000   7.0000000   6.0000000   6.0000000   8.0000000   6.0000000   6.0000000   8.0000000   6.0000000   6.0000000

  Atom        11          12          13          14          15          16          17          18          19          20
 IAtWgt=          16          32          16          16          12          12          12          12          79          12
 AtmWgt=  15.9949146  31.9720718  15.9949146  15.9949146  12.0000000  12.0000000  12.0000000  12.0000000  78.9183361  12.0000000
 NucSpn=           0           0           0           0           0           0           0           0           3           0
 AtZEff=  -0.0000000  -0.0000000  -0.0000000  -0.0000000  -0.0000000  -0.0000000  -0.0000000  -0.0000000  -0.0000000  -0.0000000
 NQMom=    0.0000000   0.0000000   0.0000000   0.0000000   0.0000000   0.0000000   0.0000000   0.0000000  31.3000000   0.0000000
 NMagM=    0.0000000   0.0000000   0.0000000   0.0000000   0.0000000   0.0000000   0.0000000   0.0000000   2.1063990   0.0000000
 AtZNuc=   8.0000000  16.0000000   8.0000000   8.0000000   6.0000000   6.0000000   6.0000000   6.0000000  35.0000000   6.0000000

  Atom        21          22          23          24          25          26          27          28          29          30
 IAtWgt=          12           1           1           1           1           1           1           1           1           1
 AtmWgt=  12.0000000   1.0078250   1.0078250   1.0078250   1.0078250   1.0078250   1.0078250   1.0078250   1.0078250   1.0078250
 NucSpn=           0           1           1           1           1           1           1           1           1           1
 AtZEff=  -0.0000000  -0.0000000  -0.0000000  -0.0000000  -0.0000000  -0.0000000  -0.0000000  -0.0000000  -0.0000000  -0.0000000
 NQMom=    0.0000000   0.0000000   0.0000000   0.0000000   0.0000000   0.0000000   0.0000000   0.0000000   0.0000000   0.0000000
 NMagM=    0.0000000   2.7928460   2.7928460   2.7928460   2.7928460   2.7928460   2.7928460   2.7928460   2.7928460   2.7928460
 AtZNuc=   6.0000000   1.0000000   1.0000000   1.0000000   1.0000000   1.0000000   1.0000000   1.0000000   1.0000000   1.0000000

  Atom        31          32          33          34          35          36          37          38
 IAtWgt=           1           1           1           1           1           1           1           1
 AtmWgt=   1.0078250   1.0078250   1.0078250   1.0078250   1.0078250   1.0078250   1.0078250   1.0078250
 NucSpn=           1           1           1           1           1           1           1           1
 AtZEff=  -0.0000000  -0.0000000  -0.0000000  -0.0000000  -0.0000000  -0.0000000  -0.0000000  -0.0000000
 NQMom=    0.0000000   0.0000000   0.0000000   0.0000000   0.0000000   0.0000000   0.0000000   0.0000000
 NMagM=    2.7928460   2.7928460   2.7928460   2.7928460   2.7928460   2.7928460   2.7928460   2.7928460
 AtZNuc=   1.0000000   1.0000000   1.0000000   1.0000000   1.0000000   1.0000000   1.0000000   1.0000000
 Leave Link  101 at Tue Aug  8 04:15:38 2023, MaxMem=   104857600 cpu:               0.2 elap:               0.2
 (Enter /private/chem/g16E03/g16/l103.exe)

 GradGradGradGradGradGradGradGradGradGradGradGradGradGradGradGradGradGrad
 Berny optimization.
 Initialization pass.
                           ----------------------------
                           !    Initial Parameters    !
                           ! (Angstroms and Degrees)  !
 --------------------------                            --------------------------
 ! Name  Definition              Value          Derivative Info.                !
 --------------------------------------------------------------------------------
 ! R1    R(1,2)                  1.47           estimate D2E/DX2                !
 ! R2    R(1,22)                 1.07           estimate D2E/DX2                !
 ! R3    R(1,23)                 1.07           estimate D2E/DX2                !
 ! R4    R(1,24)                 1.07           estimate D2E/DX2                !
 ! R5    R(2,3)                  1.47           estimate D2E/DX2                !
 ! R6    R(2,25)                 1.0            estimate D2E/DX2                !
 ! R7    R(2,26)                 1.0            estimate D2E/DX2                !
 ! R8    R(3,4)                  1.5257         estimate D2E/DX2                !
 ! R9    R(3,7)                  1.4928         estimate D2E/DX2                !
 ! R10   R(3,27)                 1.07           estimate D2E/DX2                !
 ! R11   R(4,5)                  1.442          estimate D2E/DX2                !
 ! R12   R(4,28)                 1.07           estimate D2E/DX2                !
 ! R13   R(4,29)                 1.07           estimate D2E/DX2                !
 ! R14   R(5,6)                  1.4742         estimate D2E/DX2                !
 ! R15   R(6,7)                  1.552          estimate D2E/DX2                !
 ! R16   R(6,10)                 1.4942         estimate D2E/DX2                !
 ! R17   R(6,30)                 1.07           estimate D2E/DX2                !
 ! R18   R(7,8)                  1.4725         estimate D2E/DX2                !
 ! R19   R(7,31)                 1.07           estimate D2E/DX2                !
 ! R20   R(8,9)                  1.4417         estimate D2E/DX2                !
 ! R21   R(9,10)                 1.527          estimate D2E/DX2                !
 ! R22   R(9,32)                 1.07           estimate D2E/DX2                !
 ! R23   R(9,33)                 1.07           estimate D2E/DX2                !
 ! R24   R(10,11)                1.43           estimate D2E/DX2                !
 ! R25   R(10,34)                1.07           estimate D2E/DX2                !
 ! R26   R(11,12)                1.67           estimate D2E/DX2                !
 ! R27   R(12,13)                1.4696         estimate D2E/DX2                !
 ! R28   R(12,14)                1.4696         estimate D2E/DX2                !
 ! R29   R(12,15)                1.78           estimate D2E/DX2                !
 ! R30   R(15,16)                1.3552         estimate D2E/DX2                !
 ! R31   R(15,21)                1.54           estimate D2E/DX2                !
 ! R32   R(16,17)                1.54           estimate D2E/DX2                !
 ! R33   R(16,35)                1.07           estimate D2E/DX2                !
 ! R34   R(17,18)                1.3552         estimate D2E/DX2                !
 ! R35   R(17,36)                1.07           estimate D2E/DX2                !
 ! R36   R(18,19)                1.91           estimate D2E/DX2                !
 ! R37   R(18,20)                1.54           estimate D2E/DX2                !
 ! R38   R(20,21)                1.3552         estimate D2E/DX2                !
 ! R39   R(20,37)                1.07           estimate D2E/DX2                !
 ! R40   R(21,38)                1.07           estimate D2E/DX2                !
 ! A1    A(2,1,22)             109.4712         estimate D2E/DX2                !
 ! A2    A(2,1,23)             109.4712         estimate D2E/DX2                !
 ! A3    A(2,1,24)             109.4712         estimate D2E/DX2                !
 ! A4    A(22,1,23)            109.4712         estimate D2E/DX2                !
 ! A5    A(22,1,24)            109.4712         estimate D2E/DX2                !
 ! A6    A(23,1,24)            109.4712         estimate D2E/DX2                !
 ! A7    A(1,2,3)              109.4712         estimate D2E/DX2                !
 ! A8    A(1,2,25)             109.4712         estimate D2E/DX2                !
 ! A9    A(1,2,26)             109.4712         estimate D2E/DX2                !
 ! A10   A(3,2,25)             109.4712         estimate D2E/DX2                !
 ! A11   A(3,2,26)             109.4712         estimate D2E/DX2                !
 ! A12   A(25,2,26)            109.4712         estimate D2E/DX2                !
 ! A13   A(2,3,4)              111.5241         estimate D2E/DX2                !
 ! A14   A(2,3,7)              112.3677         estimate D2E/DX2                !
 ! A15   A(2,3,27)             107.3967         estimate D2E/DX2                !
 ! A16   A(4,3,7)               97.5817         estimate D2E/DX2                !
 ! A17   A(4,3,27)             114.3643         estimate D2E/DX2                !
 ! A18   A(7,3,27)             113.5443         estimate D2E/DX2                !
 ! A19   A(3,4,5)              101.0962         estimate D2E/DX2                !
 ! A20   A(3,4,28)             113.0954         estimate D2E/DX2                !
 ! A21   A(3,4,29)             110.5585         estimate D2E/DX2                !
 ! A22   A(5,4,28)             112.6104         estimate D2E/DX2                !
 ! A23   A(5,4,29)             111.1288         estimate D2E/DX2                !
 ! A24   A(28,4,29)            108.272          estimate D2E/DX2                !
 ! A25   A(4,5,6)              104.3607         estimate D2E/DX2                !
 ! A26   A(5,6,7)              105.5776         estimate D2E/DX2                !
 ! A27   A(5,6,10)             111.7572         estimate D2E/DX2                !
 ! A28   A(5,6,30)             106.7902         estimate D2E/DX2                !
 ! A29   A(7,6,10)             100.7204         estimate D2E/DX2                !
 ! A30   A(7,6,30)             116.8792         estimate D2E/DX2                !
 ! A31   A(10,6,30)            114.8163         estimate D2E/DX2                !
 ! A32   A(3,7,6)              100.5707         estimate D2E/DX2                !
 ! A33   A(3,7,8)              111.7643         estimate D2E/DX2                !
 ! A34   A(3,7,31)             114.8844         estimate D2E/DX2                !
 ! A35   A(6,7,8)              105.556          estimate D2E/DX2                !
 ! A36   A(6,7,31)             116.9704         estimate D2E/DX2                !
 ! A37   A(8,7,31)             106.7862         estimate D2E/DX2                !
 ! A38   A(7,8,9)              104.3309         estimate D2E/DX2                !
 ! A39   A(8,9,10)             101.2517         estimate D2E/DX2                !
 ! A40   A(8,9,32)             111.1274         estimate D2E/DX2                !
 ! A41   A(8,9,33)             112.5232         estimate D2E/DX2                !
 ! A42   A(10,9,32)            110.5303         estimate D2E/DX2                !
 ! A43   A(10,9,33)            113.0367         estimate D2E/DX2                !
 ! A44   A(32,9,33)            108.2952         estimate D2E/DX2                !
 ! A45   A(6,10,9)              97.2898         estimate D2E/DX2                !
 ! A46   A(6,10,11)            113.8287         estimate D2E/DX2                !
 ! A47   A(6,10,34)            112.1212         estimate D2E/DX2                !
 ! A48   A(9,10,11)            114.6838         estimate D2E/DX2                !
 ! A49   A(9,10,34)            111.2774         estimate D2E/DX2                !
 ! A50   A(11,10,34)           107.5292         estimate D2E/DX2                !
 ! A51   A(10,11,12)           109.4712         estimate D2E/DX2                !
 ! A52   A(11,12,13)           109.4712         estimate D2E/DX2                !
 ! A53   A(11,12,14)           109.4712         estimate D2E/DX2                !
 ! A54   A(11,12,15)           109.4712         estimate D2E/DX2                !
 ! A55   A(13,12,14)           109.4712         estimate D2E/DX2                !
 ! A56   A(13,12,15)           109.4712         estimate D2E/DX2                !
 ! A57   A(14,12,15)           109.4712         estimate D2E/DX2                !
 ! A58   A(12,15,16)           120.0            estimate D2E/DX2                !
 ! A59   A(12,15,21)           120.0            estimate D2E/DX2                !
 ! A60   A(16,15,21)           120.0            estimate D2E/DX2                !
 ! A61   A(15,16,17)           120.0            estimate D2E/DX2                !
 ! A62   A(15,16,35)           120.0            estimate D2E/DX2                !
 ! A63   A(17,16,35)           120.0            estimate D2E/DX2                !
 ! A64   A(16,17,18)           120.0            estimate D2E/DX2                !
 ! A65   A(16,17,36)           120.0            estimate D2E/DX2                !
 ! A66   A(18,17,36)           120.0            estimate D2E/DX2                !
 ! A67   A(17,18,19)           120.0            estimate D2E/DX2                !
 ! A68   A(17,18,20)           120.0            estimate D2E/DX2                !
 ! A69   A(19,18,20)           120.0            estimate D2E/DX2                !
 ! A70   A(18,20,21)           120.0            estimate D2E/DX2                !
 ! A71   A(18,20,37)           120.0            estimate D2E/DX2                !
 ! A72   A(21,20,37)           120.0            estimate D2E/DX2                !
 ! A73   A(15,21,20)           120.0            estimate D2E/DX2                !
 ! A74   A(15,21,38)           120.0            estimate D2E/DX2                !
 ! A75   A(20,21,38)           120.0            estimate D2E/DX2                !
 ! D1    D(22,1,2,3)           180.0            estimate D2E/DX2                !
 ! D2    D(22,1,2,25)           60.0            estimate D2E/DX2                !
 ! D3    D(22,1,2,26)          -60.0            estimate D2E/DX2                !
 ! D4    D(23,1,2,3)           -60.0            estimate D2E/DX2                !
 ! D5    D(23,1,2,25)         -180.0            estimate D2E/DX2                !
 ! D6    D(23,1,2,26)           60.0            estimate D2E/DX2                !
 ! D7    D(24,1,2,3)            60.0            estimate D2E/DX2                !
 ! D8    D(24,1,2,25)          -60.0            estimate D2E/DX2                !
 ! D9    D(24,1,2,26)         -180.0            estimate D2E/DX2                !
 ! D10   D(1,2,3,4)             65.8782         estimate D2E/DX2                !
 ! D11   D(1,2,3,7)            174.2794         estimate D2E/DX2                !
 ! D12   D(1,2,3,27)           -60.1576         estimate D2E/DX2                !
 ! D13   D(25,2,3,4)          -174.1218         estimate D2E/DX2                !
 ! D14   D(25,2,3,7)           -65.7206         estimate D2E/DX2                !
 ! D15   D(25,2,3,27)           59.8424         estimate D2E/DX2                !
 ! D16   D(26,2,3,4)           -54.1218         estimate D2E/DX2                !
 ! D17   D(26,2,3,7)            54.2794         estimate D2E/DX2                !
 ! D18   D(26,2,3,27)          179.8424         estimate D2E/DX2                !
 ! D19   D(2,3,4,5)             62.3896         estimate D2E/DX2                !
 ! D20   D(2,3,4,28)           -58.2448         estimate D2E/DX2                !
 ! D21   D(2,3,4,29)          -179.8436         estimate D2E/DX2                !
 ! D22   D(7,3,4,5)            -55.3322         estimate D2E/DX2                !
 ! D23   D(7,3,4,28)          -175.9667         estimate D2E/DX2                !
 ! D24   D(7,3,4,29)            62.4346         estimate D2E/DX2                !
 ! D25   D(27,3,4,5)          -175.5082         estimate D2E/DX2                !
 ! D26   D(27,3,4,28)           63.8574         estimate D2E/DX2                !
 ! D27   D(27,3,4,29)          -57.7413         estimate D2E/DX2                !
 ! D28   D(2,3,7,6)            -71.3688         estimate D2E/DX2                !
 ! D29   D(2,3,7,8)            177.0231         estimate D2E/DX2                !
 ! D30   D(2,3,7,31)            55.1537         estimate D2E/DX2                !
 ! D31   D(4,3,7,6)             45.6971         estimate D2E/DX2                !
 ! D32   D(4,3,7,8)            -65.911          estimate D2E/DX2                !
 ! D33   D(4,3,7,31)           172.2196         estimate D2E/DX2                !
 ! D34   D(27,3,7,6)           166.4919         estimate D2E/DX2                !
 ! D35   D(27,3,7,8)            54.8838         estimate D2E/DX2                !
 ! D36   D(27,3,7,31)          -66.9856         estimate D2E/DX2                !
 ! D37   D(3,4,5,6)             41.3619         estimate D2E/DX2                !
 ! D38   D(28,4,5,6)           162.3391         estimate D2E/DX2                !
 ! D39   D(29,4,5,6)           -75.9889         estimate D2E/DX2                !
 ! D40   D(4,5,6,7)            -11.9939         estimate D2E/DX2                !
 ! D41   D(4,5,6,10)            96.6197         estimate D2E/DX2                !
 ! D42   D(4,5,6,30)          -137.0494         estimate D2E/DX2                !
 ! D43   D(5,6,7,3)            -22.451          estimate D2E/DX2                !
 ! D44   D(5,6,7,8)             93.8753         estimate D2E/DX2                !
 ! D45   D(5,6,7,31)          -147.5683         estimate D2E/DX2                !
 ! D46   D(10,6,7,3)          -138.8374         estimate D2E/DX2                !
 ! D47   D(10,6,7,8)           -22.5111         estimate D2E/DX2                !
 ! D48   D(10,6,7,31)           96.0452         estimate D2E/DX2                !
 ! D49   D(30,6,7,3)            96.0722         estimate D2E/DX2                !
 ! D50   D(30,6,7,8)          -147.6015         estimate D2E/DX2                !
 ! D51   D(30,6,7,31)          -29.0451         estimate D2E/DX2                !
 ! D52   D(5,6,10,9)           -66.0493         estimate D2E/DX2                !
 ! D53   D(5,6,10,11)           55.0648         estimate D2E/DX2                !
 ! D54   D(5,6,10,34)          177.4051         estimate D2E/DX2                !
 ! D55   D(7,6,10,9)            45.6561         estimate D2E/DX2                !
 ! D56   D(7,6,10,11)          166.7702         estimate D2E/DX2                !
 ! D57   D(7,6,10,34)          -70.8894         estimate D2E/DX2                !
 ! D58   D(30,6,10,9)          172.133          estimate D2E/DX2                !
 ! D59   D(30,6,10,11)         -66.7529         estimate D2E/DX2                !
 ! D60   D(30,6,10,34)          55.5875         estimate D2E/DX2                !
 ! D61   D(3,7,8,9)             96.4361         estimate D2E/DX2                !
 ! D62   D(6,7,8,9)            -11.9961         estimate D2E/DX2                !
 ! D63   D(31,7,8,9)          -137.1448         estimate D2E/DX2                !
 ! D64   D(7,8,9,10)            41.4701         estimate D2E/DX2                !
 ! D65   D(7,8,9,32)           -75.9311         estimate D2E/DX2                !
 ! D66   D(7,8,9,33)           162.4298         estimate D2E/DX2                !
 ! D67   D(8,9,10,6)           -55.3141         estimate D2E/DX2                !
 ! D68   D(8,9,10,11)         -175.7816         estimate D2E/DX2                !
 ! D69   D(8,9,10,34)           61.894          estimate D2E/DX2                !
 ! D70   D(32,9,10,6)           62.5213         estimate D2E/DX2                !
 ! D71   D(32,9,10,11)         -57.9462         estimate D2E/DX2                !
 ! D72   D(32,9,10,34)         179.7294         estimate D2E/DX2                !
 ! D73   D(33,9,10,6)         -175.9118         estimate D2E/DX2                !
 ! D74   D(33,9,10,11)          63.6207         estimate D2E/DX2                !
 ! D75   D(33,9,10,34)         -58.7037         estimate D2E/DX2                !
 ! D76   D(6,10,11,12)          64.667          estimate D2E/DX2                !
 ! D77   D(9,10,11,12)         175.5002         estimate D2E/DX2                !
 ! D78   D(34,10,11,12)        -60.1672         estimate D2E/DX2                !
 ! D79   D(10,11,12,13)        -60.0            estimate D2E/DX2                !
 ! D80   D(10,11,12,14)         60.0            estimate D2E/DX2                !
 ! D81   D(10,11,12,15)        180.0            estimate D2E/DX2                !
 ! D82   D(11,12,15,16)       -120.0            estimate D2E/DX2                !
 ! D83   D(11,12,15,21)         60.0            estimate D2E/DX2                !
 ! D84   D(13,12,15,16)        120.0            estimate D2E/DX2                !
 ! D85   D(13,12,15,21)        -60.0            estimate D2E/DX2                !
 ! D86   D(14,12,15,16)          0.0            estimate D2E/DX2                !
 ! D87   D(14,12,15,21)       -180.0            estimate D2E/DX2                !
 ! D88   D(12,15,16,17)       -180.0            estimate D2E/DX2                !
 ! D89   D(12,15,16,35)          0.0            estimate D2E/DX2                !
 ! D90   D(21,15,16,17)          0.0            estimate D2E/DX2                !
 ! D91   D(21,15,16,35)        180.0            estimate D2E/DX2                !
 ! D92   D(12,15,21,20)        180.0            estimate D2E/DX2                !
 ! D93   D(12,15,21,38)          0.0            estimate D2E/DX2                !
 ! D94   D(16,15,21,20)          0.0            estimate D2E/DX2                !
 ! D95   D(16,15,21,38)        180.0            estimate D2E/DX2                !
 ! D96   D(15,16,17,18)          0.0            estimate D2E/DX2                !
 ! D97   D(15,16,17,36)        180.0            estimate D2E/DX2                !
 ! D98   D(35,16,17,18)       -180.0            estimate D2E/DX2                !
 ! D99   D(35,16,17,36)          0.0            estimate D2E/DX2                !
 ! D100  D(16,17,18,19)        180.0            estimate D2E/DX2                !
 ! D101  D(16,17,18,20)          0.0            estimate D2E/DX2                !
 ! D102  D(36,17,18,19)          0.0            estimate D2E/DX2                !
 ! D103  D(36,17,18,20)        180.0            estimate D2E/DX2                !
 ! D104  D(17,18,20,21)          0.0            estimate D2E/DX2                !
 ! D105  D(17,18,20,37)        180.0            estimate D2E/DX2                !
 ! D106  D(19,18,20,21)        180.0            estimate D2E/DX2                !
 ! D107  D(19,18,20,37)          0.0            estimate D2E/DX2                !
 ! D108  D(18,20,21,15)          0.0            estimate D2E/DX2                !
 ! D109  D(18,20,21,38)        180.0            estimate D2E/DX2                !
 ! D110  D(37,20,21,15)        180.0            estimate D2E/DX2                !
 ! D111  D(37,20,21,38)          0.0            estimate D2E/DX2                !
 --------------------------------------------------------------------------------
 Trust Radius=3.00D-01 FncErr=1.00D-07 GrdErr=1.00D-06 EigMax=2.50D+02 EigMin=1.00D-04
 Number of steps in this run=    228 maximum allowed number of steps=    228.
 GradGradGradGradGradGradGradGradGradGradGradGradGradGradGradGradGradGrad

 Leave Link  103 at Tue Aug  8 04:15:38 2023, MaxMem=   104857600 cpu:               0.0 elap:               0.0
 (Enter /private/chem/g16E03/g16/l202.exe)
                          Input orientation:                          
 ---------------------------------------------------------------------
 Center     Atomic      Atomic             Coordinates (Angstroms)
 Number     Number       Type             X           Y           Z
 ---------------------------------------------------------------------
      1          6           0        0.000000    0.000000    0.000000
      2          7           0        0.000000    0.000000    1.470000
      3          6           0        1.385929    0.000000    1.960000
      4          6           0        2.107023    1.295358    1.599728
      5          8           0        1.314289    2.263054    2.317104
      6          6           0        1.040045    1.620801    3.615412
      7          6           0        1.463654    0.137604    3.444410
      8          8           0        2.852803    0.065462    3.927433
      9          6           0        3.257267    1.443130    4.057855
     10          6           0        2.003187    2.065386    4.667678
     11          8           0        2.061520    3.484351    4.835118
     12         16           0        0.588704    4.040103    5.392657
     13          8           0       -0.461341    3.704264    4.420884
     14          8           0        0.282721    3.406745    6.682989
     15          6           0        0.661314    5.806367    5.601079
     16          6           0        0.446698    6.353991    6.821986
     17          6           0        0.509518    7.882107    7.002306
     18          6           0        0.779416    8.679225    5.940080
     19         35           0        0.857330   10.574486    6.163723
     20          6           0        1.023299    8.056925    4.552685
     21          6           0        0.968017    6.712183    4.394004
     22          1           0       -1.008806    0.000000   -0.356667
     23          1           0        0.504403    0.873651   -0.356667
     24          1           0        0.504403   -0.873651   -0.356667
     25          1           0       -0.471405   -0.816497    1.803333
     26          1           0       -0.471405    0.816497    1.803333
     27          1           0        1.856913   -0.885661    1.587604
     28          1           0        2.131581    1.483145    0.546622
     29          1           0        3.114058    1.277785    1.960936
     30          1           0        0.010826    1.807015    3.841093
     31          1           0        0.907075   -0.592497    3.994021
     32          1           0        3.464258    1.876485    3.101687
     33          1           0        4.124316    1.559174    4.674021
     34          1           0        1.782344    1.636959    5.622968
     35          1           0        0.233599    5.724625    7.660668
     36          1           0        0.340067    8.314484    7.966275
     37          1           0        1.236398    8.686291    3.714003
     38          1           0        1.137468    6.279806    3.430035
 ---------------------------------------------------------------------
                    Distance matrix (angstroms):
                    1          2          3          4          5
     1  C    0.000000
     2  N    1.470000   0.000000
     3  C    2.400500   1.470000   0.000000
     4  C    2.945612   2.476758   1.525688   0.000000
     5  O    3.495388   2.750700   2.292175   1.442044   0.000000
     6  C    4.096327   2.882965   2.342439   2.303766   1.474212
     7  C    3.745020   2.461608   1.492799   2.270941   2.410532
     8  O    4.854637   3.765866   2.454953   2.736246   3.128833
     9  C    5.399870   4.403340   3.159988   2.717956   2.734530
    10  C    5.483229   4.301595   3.460975   3.164813   2.457408
    11  O    6.306261   5.264464   4.567650   3.906598   2.896604
    12  S    6.763857   5.661824   5.361076   4.921914   3.625384
    13  O    5.786072   4.758374   4.815593   4.512011   3.107385
    14  O    7.506543   6.233867   5.927024   5.798757   4.629591
    15  C    8.094648   7.156609   6.891765   6.200813   4.875032
    16  C    9.333394   8.319645   8.055698   7.457776   6.146743
    17  C   10.555544   9.643320   9.397902   8.667475   7.360199
    18  C   10.546136   9.793776   9.567541   8.667334   7.387780
    19  Br  12.269729  11.601112  11.391684  10.416045   9.169798
    20  C    9.310646   8.687010   8.471574   7.457426   6.217029
    21  C    8.080701   7.385138   7.152093   6.200589   4.922212
    22  H    1.070000   2.086720   3.331921   3.900490   4.203240
    23  H    1.070000   2.086720   2.628174   2.563924   3.120161
    24  H    1.070000   2.086720   2.628174   3.331737   4.200462
    25  H    2.034920   1.000000   2.034920   3.339113   3.596706
    26  H    2.034920   1.000000   2.034920   2.630409   2.354822
    27  H    2.598655   2.060668   1.070000   2.195347   3.277349
    28  H    2.653705   2.756081   2.180219   1.070000   2.100198
    29  H    3.895557   3.401634   2.149225   1.070000   2.082494
    30  H    4.244929   2.981192   2.948682   3.111198   2.056582
    31  H    4.138362   2.746729   2.172003   3.276662   3.336472
    32  H    5.014254   4.264350   3.023921   2.106105   2.321072
    33  H    6.425533   5.450390   4.158809   3.686509   3.734536
    34  H    6.121613   4.806613   4.031639   4.050749   3.397029
    35  H    9.566177   8.435062   8.160687   7.737126   6.457867
    36  H   11.519888  10.556888  10.310180   9.639667   8.335589
    37  H    9.527547   9.056262   8.862874   7.736539   6.573840
    38  H    7.245339   6.676192   6.454355   5.397664   4.171832
                    6          7          8          9         10
     6  C    0.000000
     7  C    1.551954   0.000000
     8  O    2.408843   1.472498   0.000000
     9  C    2.267906   2.301687   1.441724   0.000000
    10  C    1.494176   2.346023   2.295540   1.527025   0.000000
    11  O    2.450288   3.673177   3.624751   2.490087   1.430000
    12  S    3.035677   4.448675   4.803207   3.955655   2.534929
    13  O    2.691424   4.168954   4.946506   4.367215   2.969971
    14  O    3.629485   4.750819   5.036128   4.426629   2.969971
    15  C    4.648147   6.117994   6.368807   5.306445   4.082499
    16  C    5.747805   7.147426   7.328941   6.297324   5.045378
    17  C    7.138379   8.575916   8.720422   7.594758   6.443274
    18  C    7.435950   8.925012   9.085515   7.876776   6.845399
    19  Br   9.311055  10.802352  10.928059   9.673471   8.715269
    20  C    6.504034   8.008611   8.222014   6.998412   6.072228
    21  C    5.151074   6.661267   6.924522   5.754702   4.768564
    22  H    4.754177   4.536538   5.767999   6.306346   6.211438
    23  H    4.077077   3.988748   4.951935   5.233600   5.376860
    24  H    4.720871   4.048578   4.974980   5.695063   6.010685
    25  H    3.392423   2.710700   4.042277   4.908337   4.757449
    26  H    2.492994   2.626496   4.015745   4.402105   3.985950
    27  H    3.325903   2.156259   2.715002   3.672383   4.268130
    28  H    3.260042   3.264014   3.736291   3.687483   4.163964
    29  H    2.675160   2.494904   2.324886   2.108297   3.029984
    30  H    1.070000   2.248333   3.334261   3.273955   2.172441
    31  H    2.249381   1.070000   2.055043   3.109864   2.952900
    32  H    2.491204   2.672749   2.082196   1.070000   2.150056
    33  H    3.261468   3.257595   2.098884   1.070000   2.180706
    34  H    2.140455   2.663783   2.547611   2.159293   1.070000
    35  H    5.818576   7.106664   7.267971   6.360349   5.047719
    36  H    8.014073   9.411221   9.522208   8.426228   7.259334
    37  H    7.068905   8.555956   8.773654   7.527652   6.733042
    38  H    4.663709   6.150874   6.465899   5.318003   4.476893
                   11         12         13         14         15
    11  O    0.000000
    12  S    1.670000   0.000000
    13  O    2.566082   1.469600   0.000000
    14  O    2.566082   1.469600   2.399847   0.000000
    15  C    2.817629   1.780000   2.659333   2.659333   0.000000
    16  C    3.845794   2.723458   3.689292   2.955075   1.355200
    17  C    5.142536   4.166321   5.006064   4.492467   2.509019
    18  C    5.463648   4.675200   5.347679   5.347679   2.895200
    19  Br   7.313363   6.585200   7.209461   7.209461   4.805200
    20  C    4.697458   4.126656   4.600781   5.168252   2.509019
    21  C    3.436457   2.877707   3.330370   4.078604   1.540000
    22  H    6.965790   7.206192   6.070114   7.926582   8.485160
    23  H    6.016227   6.564164   5.636490   7.484815   7.736345
    24  H    6.954957   7.563519   6.686925   8.241826   8.952206
    25  H    5.839924   6.131365   5.223883   6.497347   7.718047
    26  H    4.767061   4.939506   3.897548   5.575763   6.372184
    27  H    5.448414   6.352161   5.871047   6.845859   7.894345
    28  H    4.732963   5.692326   5.163964   6.691303   6.811716
    29  H    3.773286   5.077847   4.972185   5.903112   6.306715
    30  H    2.829644   2.779924   2.039278   3.272527   4.417635
    31  H    4.319824   4.849591   4.529562   4.859455   6.602158
    32  H    2.749125   4.265982   4.526741   5.028877   5.435755
    33  H    2.826196   4.378584   5.068899   4.712465   5.557919
    34  H    2.027685   2.693125   3.279158   2.550423   4.317540
    35  H    4.042754   2.847382   3.880850   2.516116   2.105120
    36  H    6.008139   4.995564   5.870790   5.073067   3.462370
    37  H    5.384971   4.982414   5.310611   6.131720   3.490808
    38  H    3.262316   3.028085   3.189261   4.423436   2.272510
                   16         17         18         19         20
    16  C    0.000000
    17  C    1.540000   0.000000
    18  C    2.509019   1.355200   0.000000
    19  Br   4.291213   2.841320   1.910000   0.000000
    20  C    2.895200   2.509019   1.540000   2.993510   0.000000
    21  C    2.509019   2.895200   2.509019   4.249887   1.355200
    22  H    9.696636  10.889784  10.870865  12.562551   9.651178
    23  H    9.031639  10.162330  10.032529  11.693854   8.716101
    24  H   10.187011  11.437561  11.444741  13.179525  10.204224
    25  H    8.800323  10.181219  10.432927  12.269190   9.409075
    26  H    7.529517   8.826912   8.972164  10.770185   7.887768
    27  H    9.044337  10.392701  10.563716  12.380428   9.458143
    28  H    8.120602   9.233291   9.094026  10.762343   7.777623
    29  H    7.517479   8.707244   8.721551  10.449157   7.552826
    30  H    5.454420   6.866491   7.226600   9.109320   6.371251
    31  H    7.514189   9.001486   9.474612  11.375921   8.668225
    32  H    6.557008   7.746793   7.844879   9.582659   6.801582
    33  H    6.413182   7.646382   7.967834   9.704033   7.200819
    34  H    5.046978   6.521084   7.120389   9.001526   6.552681
    35  H    1.070000   2.272510   3.462370   5.113808   3.965200
    36  H    2.272510   1.070000   2.105120   2.936727   3.490808
    37  H    3.965200   3.462370   2.272510   3.116103   1.070000
    38  H    3.462370   3.965200   3.490808   5.098608   2.105120
                   21         22         23         24         25
    21  C    0.000000
    22  H    8.457547   0.000000
    23  H    7.541370   1.747303   0.000000
    24  H    8.962628   1.747303   1.747303   0.000000
    25  H    8.091015   2.370879   2.911082   2.370879   0.000000
    26  H    6.598684   2.370879   2.370879   2.911082   1.632993
    27  H    8.148206   3.574483   2.950364   2.368462   2.339313
    28  H    6.595383   3.588548   1.958346   3.003020   3.693671
    29  H    6.329139   4.899186   3.513532   4.100032   4.155286
    30  H    5.028180   4.682536   4.328507   5.005076   3.356758
    31  H    7.315877   4.790630   4.608711   4.378319   2.597979
    32  H    5.593324   5.957324   4.661183   5.318290   4.942400
    33  H    6.049309   7.354439   6.235506   6.658095   5.916528
    34  H    5.285015   6.798984   6.162126   6.610017   5.068376
    35  H    3.490808   9.929379   9.374590  10.386927   8.808614
    36  H    3.965200  11.841514  11.165319  12.398395  11.046047
    37  H    2.105120   9.852053   8.839882  10.416269   9.842267
    38  H    1.070000   7.640783   6.630716   8.118610   7.456014
                   26         27         28         29         30
    26  H    0.000000
    27  H    2.892221   0.000000
    28  H    2.966358   2.601985   0.000000
    29  H    3.618449   2.529880   1.734278   0.000000
    30  H    2.316493   3.966958   3.931417   3.666760   0.000000
    31  H    2.946961   2.603648   4.206218   3.535841   2.565991
    32  H    4.277703   3.536306   2.908454   1.335064   3.532385
    33  H    5.469284   4.543601   4.583907   2.908717   4.204283
    34  H    4.510227   4.759552   5.090670   3.913176   2.518387
    35  H    7.674316   9.122124   8.497185   7.781927   5.475988
    36  H    9.739618  11.297386  10.243436   9.657860   7.711853
    37  H    8.276528   9.824911   7.919531   7.841225   6.988749
    38  H    5.923038   7.433443   5.684214   5.575426   4.630783
                   31         32         33         34         35
    31  H    0.000000
    32  H    3.664877   0.000000
    33  H    3.929724   1.734531   0.000000
    34  H    2.896556   3.040241   2.528118   0.000000
    35  H    7.335115   6.784516   6.434961   4.822847   0.000000
    36  H    9.769064   8.652896   8.413898   7.222229   2.610000
    37  H    9.288852   7.191088   7.749678   7.323612   5.035200
    38  H    6.899255   4.991092   5.723035   5.175022   4.361590
                   36         37         38
    36  H    0.000000
    37  H    4.361590   0.000000
    38  H    5.035200   2.425200   0.000000
 Stoichiometry    C13H17BrNO5S(1+)
 Framework group  C1[X(C13H17BrNO5S)]
 Deg. of freedom   108
 Full point group                 C1      NOp   1
 Largest Abelian subgroup         C1      NOp   1
 Largest concise Abelian subgroup C1      NOp   1
                         Standard orientation:                         
 ---------------------------------------------------------------------
 Center     Atomic      Atomic             Coordinates (Angstroms)
 Number     Number       Type             X           Y           Z
 ---------------------------------------------------------------------
      1          6           0        5.839393    2.615080   -0.834509
      2          7           0        5.276086    1.280875   -1.086465
      3          6           0        5.163124    0.548904    0.183321
      4          6           0        4.145671    1.199330    1.115770
      5          8           0        2.935683    1.065786    0.342732
      6          6           0        3.015578   -0.290211   -0.230148
      7          6           0        4.471607   -0.764255    0.022485
      8          8           0        4.428013   -1.516896    1.287349
      9          6           0        3.129538   -1.216165    1.836980
     10          6           0        2.254389   -1.282584    0.587377
     11          8           0        0.884966   -0.928638    0.797866
     12         16           0        0.079368   -0.926547   -0.664976
     13          8           0        0.704748    0.050478   -1.567220
     14          8           0        0.152404   -2.265479   -1.266350
     15          6           0       -1.625228   -0.485972   -0.402969
     16          6           0       -2.609623   -1.349700   -0.751549
     17          6           0       -4.084385   -0.968528   -0.524868
     18          6           0       -4.397781    0.230631    0.023190
     19         35           0       -6.226870    0.703383    0.304332
     20          6           0       -3.279151    1.212140    0.419303
     21          6           0       -1.981360    0.876708    0.219824
     22          1           0        5.921618    3.147875   -1.758775
     23          1           0        5.197713    3.153195   -0.168492
     24          1           0        6.808876    2.515325   -0.392862
     25          1           0        5.875787    0.777963   -1.708911
     26          1           0        4.370027    1.374103   -1.499220
     27          1           0        6.147904    0.465968    0.593478
     28          1           0        4.377394    2.218617    1.344373
     29          1           0        4.077814    0.656365    2.035272
     30          1           0        2.701838   -0.213758   -1.250257
     31          1           0        4.904168   -1.414272   -0.709134
     32          1           0        3.107526   -0.233024    2.258701
     33          1           0        2.833219   -1.912745    2.593201
     34          1           0        2.271446   -2.260257    0.152908
     35          1           0       -2.362181   -2.296498   -1.184269
     36          1           0       -4.861616   -1.650486   -0.800090
     37          1           0       -3.526593    2.158937    0.852023
     38          1           0       -1.204129    1.558666    0.495046
 ---------------------------------------------------------------------
 Rotational constants (GHZ):           0.6578594           0.0757249           0.0729452
 Leave Link  202 at Tue Aug  8 04:15:38 2023, MaxMem=   104857600 cpu:               0.0 elap:               0.0
 (Enter /private/chem/g16E03/g16/l301.exe)
 Standard basis: 6-31+G(d,p) (6D, 7F)
 Ernie: Thresh=  0.10000D-02 Tol=  0.10000D-05 Strict=F.
 There are   503 symmetry adapted cartesian basis functions of A   symmetry.
 There are   503 symmetry adapted basis functions of A   symmetry.
   503 basis functions,   870 primitive gaussians,   503 cartesian basis functions
    96 alpha electrons       96 beta electrons
       nuclear repulsion energy      2319.7903217666 Hartrees.
 IExCor= 4336 DFT=T Ex+Corr=M062X ExCW=0 ScaHFX=  0.540000
 ScaDFX=  1.000000  1.000000  1.000000  1.000000 ScalE2=  1.000000  1.000000
 IRadAn=      5 IRanWt=     -1 IRanGd=            0 ICorTp=0 IEmpDi=  4
 NAtoms=   38 NActive=   38 NUniq=   38 SFac= 1.00D+00 NAtFMM=   60 NAOKFM=F Big=F
 Integral buffers will be    131072 words long.
 Raffenetti 2 integral format.
 Two-electron integral symmetry is turned on.
 ------------------------------------------------------------------------------
 Polarizable Continuum Model (PCM)
 =================================
 Model                : PCM.
 Atomic radii         : SMD-Coulomb.
 Polarization charges : Total charges.
 Charge compensation  : None.
 Solution method      : On-the-fly selection.
 Cavity type          : VdW (van der Waals Surface) (Alpha=1.000).
 Cavity algorithm     : GePol (No added spheres)
                        Default sphere list used, NSphG=   38.
                        Lebedev-Laikov grids with approx.  5.0 points / Ang**2.
                        Smoothing algorithm: York/Karplus (Gamma=1.0000).
                        Polarization charges: spherical gaussians, with
                                              point-specific exponents (IZeta= 3).
                        Self-potential: point-specific (ISelfS= 7).
                        Self-field    : sphere-specific E.n sum rule (ISelfD= 2).
 1st derivatives      : Analytical E(r).r(x)/FMM algorithm (CHGder, D1EAlg=3).
                        Cavity 1st derivative terms included.
 Solvent              : Water, Eps=  78.355300 Eps(inf)=   1.777849
 ------------------------------------------------------------------------------
 GePol: Number of generator spheres                  =      38
 GePol: Total number of spheres                      =      38
 GePol: Number of exposed spheres                    =      38 (100.00%)
 GePol: Number of points                             =    2782
 GePol: Average weight of points                     =       0.13
 GePol: Minimum weight of points                     =   0.47D-11
 GePol: Maximum weight of points                     =    0.22025
 GePol: Number of points with low weight             =     164
 GePol: Fraction of low-weight points (<1% of avg)   =       5.90%
 GePol: Cavity surface area                          =    355.002 Ang**2
 GePol: Cavity volume                                =    369.908 Ang**3
 ------------------------------------------------------------------------------
 Atomic radii for non-electrostatic terms: SMD-CDS.
 ------------------------------------------------------------------------------
 PCM non-electrostatic energy =         0.0088792446 Hartrees.
 Nuclear repulsion after PCM non-electrostatic terms =     2319.7992010113 Hartrees.
 Leave Link  301 at Tue Aug  8 04:15:38 2023, MaxMem=   104857600 cpu:               0.1 elap:               0.2
 (Enter /private/chem/g16E03/g16/l302.exe)
 NPDir=0 NMtPBC=     1 NCelOv=     1 NCel=       1 NClECP=     1 NCelD=      1
         NCelK=      1 NCelE2=     1 NClLst=     1 CellRange=     0.0.
 One-electron integrals computed using PRISM.
 One-electron integral symmetry used in STVInt
 NBasis=   503 RedAO= T EigKep=  1.78D-06  NBF=   503
 NBsUse=   503 1.00D-06 EigRej= -1.00D+00 NBFU=   503
 Precomputing XC quadrature grid using
 IXCGrd= 4 IRadAn=           5 IRanWt=          -1 IRanGd=           0 AccXCQ= 0.00D+00.
 Generated NRdTot=       0 NPtTot=           0 NUsed=           0 NTot=          32
 NSgBfM=   490   490   490   490   490 MxSgAt=    38 MxSgA2=    38.
 Leave Link  302 at Tue Aug  8 04:15:40 2023, MaxMem=   104857600 cpu:               2.2 elap:               2.2
 (Enter /private/chem/g16E03/g16/l303.exe)
 DipDrv:  MaxL=1.
 Leave Link  303 at Tue Aug  8 04:15:41 2023, MaxMem=   104857600 cpu:               0.1 elap:               0.1
 (Enter /private/chem/g16E03/g16/l401.exe)
 ExpMin= 3.50D-02 ExpMax= 5.74D+05 ExpMxC= 5.74D+03 IAcc=3 IRadAn=         5 AccDes= 0.00D+00
 Harris functional with IExCor= 1009 and IRadAn=       5 diagonalized for initial guess.
 HarFok:  IExCor= 1009 AccDes= 0.00D+00 IRadAn=         5 IDoV= 1 UseB2=F ITyADJ=14
 ICtDFT=  3500011 ScaDFX=  1.000000  1.000000  1.000000  1.000000
 FoFCou: FMM=F IPFlag=           0 FMFlag=      100000 FMFlg1=           0
         NFxFlg=           0 DoJE=T BraDBF=F KetDBF=T FulRan=T
         wScrn=  0.000000 ICntrl=       500 IOpCl=  0 I1Cent=   200000004 NGrid=           0
         NMat0=    1 NMatS0=      1 NMatT0=    0 NMatD0=    1 NMtDS0=    0 NMtDT0=    0
 Petite list used in FoFCou.
 Harris En= -3904.65752615468    
 JPrj=0 DoOrth=F DoCkMO=F.
 Leave Link  401 at Tue Aug  8 04:16:17 2023, MaxMem=   104857600 cpu:              35.8 elap:              36.0
 (Enter /private/chem/g16E03/g16/l502.exe)
 Integral symmetry usage will be decided dynamically.
 Closed shell SCF:
 Using DIIS extrapolation, IDIIS=  1040.
 NGot=   104857600 LenX=   104343528 LenY=   104090016
 Requested convergence on RMS density matrix=1.00D-08 within 128 cycles.
 Requested convergence on MAX density matrix=1.00D-06.
 Requested convergence on             energy=1.00D-06.
 No special actions if energy rises.
 Fock matrices will be formed incrementally for  20 cycles.

 Cycle   1  Pass 1  IDiag  1:
 FoFJK:  IHMeth= 1 ICntrl=       0 DoSepK=F KAlg= 0 I1Cent=           0 FoldK=F
 IRaf= 760000000 NMat=       1 IRICut=       1 DoRegI=T DoRafI=F ISym2E= 0 IDoP0=0 IntGTp=1.
 FoFCou: FMM=F IPFlag=           0 FMFlag=      100000 FMFlg1=           0
         NFxFlg=           0 DoJE=F BraDBF=F KetDBF=F FulRan=T
         wScrn=  0.000000 ICntrl=         0 IOpCl=  0 I1Cent=           0 NGrid=           0
         NMat0=    1 NMatS0=      1 NMatT0=    0 NMatD0=    1 NMtDS0=    0 NMtDT0=    0
 Symmetry not used in FoFCou.
 Inv3:  Mode=1 IEnd=    23218572.
 Iteration    1 A*A^-1 deviation from unit magnitude is 5.11D-15 for   2759.
 Iteration    1 A*A^-1 deviation from orthogonality  is 2.54D-15 for   1783   1660.
 Iteration    1 A^-1*A deviation from unit magnitude is 5.33D-15 for   2759.
 Iteration    1 A^-1*A deviation from orthogonality  is 7.74D-14 for   1559   1529.
 E= -3905.32109292730    
 DIIS: error= 6.04D-02 at cycle   1 NSaved=   1.
 NSaved= 1 IEnMin= 1 EnMin= -3905.32109292730     IErMin= 1 ErrMin= 6.04D-02
 ErrMax= 6.04D-02  0.00D+00 EMaxC= 1.00D-01 BMatC= 8.36D-01 BMatP= 8.36D-01
 IDIUse=3 WtCom= 3.96D-01 WtEn= 6.04D-01
 Coeff-Com:  0.100D+01
 Coeff-En:   0.100D+01
 Coeff:      0.100D+01
 Gap=     0.299 Goal=   None    Shift=    0.000
 GapD=    0.299 DampG=1.000 DampE=0.500 DampFc=0.5000 IDamp=-1.
 Damping current iteration by 5.00D-01
 RMSDP=3.48D-02 MaxDP=5.09D+00              OVMax= 1.50D-01

 Cycle   2  Pass 1  IDiag  1:
 RMSU=  1.70D-02    CP:  9.66D-01
 E= -3905.52351585756     Delta-E=       -0.202422930261 Rises=F Damp=T
 DIIS: error= 2.82D-02 at cycle   2 NSaved=   2.
 NSaved= 2 IEnMin= 2 EnMin= -3905.52351585756     IErMin= 2 ErrMin= 2.82D-02
 ErrMax= 2.82D-02  0.00D+00 EMaxC= 1.00D-01 BMatC= 1.07D-01 BMatP= 8.36D-01
 IDIUse=3 WtCom= 7.18D-01 WtEn= 2.82D-01
 Coeff-Com: -0.476D-01 0.105D+01
 Coeff-En:   0.103D+00 0.897D+00
 Coeff:     -0.509D-02 0.101D+01
 Gap=     0.343 Goal=   None    Shift=    0.000
 RMSDP=2.61D-02 MaxDP=5.35D+00 DE=-2.02D-01 OVMax= 1.43D-01

 Cycle   3  Pass 1  IDiag  1:
 RMSU=  9.83D-03    CP:  7.27D-01  7.46D-01
 E= -3905.76545040210     Delta-E=       -0.241934544538 Rises=F Damp=F
 DIIS: error= 4.41D-03 at cycle   3 NSaved=   3.
 NSaved= 3 IEnMin= 3 EnMin= -3905.76545040210     IErMin= 3 ErrMin= 4.41D-03
 ErrMax= 4.41D-03  0.00D+00 EMaxC= 1.00D-01 BMatC= 4.20D-02 BMatP= 1.07D-01
 IDIUse=3 WtCom= 9.56D-01 WtEn= 4.41D-02
 Coeff-Com: -0.131D+00 0.427D+00 0.704D+00
 Coeff-En:   0.000D+00 0.000D+00 0.100D+01
 Coeff:     -0.125D+00 0.408D+00 0.717D+00
 Gap=     0.275 Goal=   None    Shift=    0.000
 RMSDP=3.34D-03 MaxDP=4.43D-01 DE=-2.42D-01 OVMax= 3.49D-02

 Cycle   4  Pass 1  IDiag  1:
 RMSU=  1.98D-03    CP:  7.31D-01  8.94D-01  9.14D-01
 E= -3905.79394261936     Delta-E=       -0.028492217264 Rises=F Damp=F
 DIIS: error= 1.79D-03 at cycle   4 NSaved=   4.
 NSaved= 4 IEnMin= 4 EnMin= -3905.79394261936     IErMin= 4 ErrMin= 1.79D-03
 ErrMax= 1.79D-03  0.00D+00 EMaxC= 1.00D-01 BMatC= 5.35D-03 BMatP= 4.20D-02
 IDIUse=3 WtCom= 9.82D-01 WtEn= 1.79D-02
 Coeff-Com: -0.607D-01 0.146D+00 0.356D+00 0.558D+00
 Coeff-En:   0.000D+00 0.000D+00 0.412D-01 0.959D+00
 Coeff:     -0.597D-01 0.144D+00 0.350D+00 0.565D+00
 Gap=     0.278 Goal=   None    Shift=    0.000
 RMSDP=1.10D-03 MaxDP=1.31D-01 DE=-2.85D-02 OVMax= 1.48D-02

 Cycle   5  Pass 1  IDiag  1:
 RMSU=  6.89D-04    CP:  7.34D-01  8.67D-01  9.21D-01  6.53D-01
 E= -3905.79856167609     Delta-E=       -0.004619056726 Rises=F Damp=F
 DIIS: error= 2.99D-04 at cycle   5 NSaved=   5.
 NSaved= 5 IEnMin= 5 EnMin= -3905.79856167609     IErMin= 5 ErrMin= 2.99D-04
 ErrMax= 2.99D-04  0.00D+00 EMaxC= 1.00D-01 BMatC= 1.81D-04 BMatP= 5.35D-03
 IDIUse=3 WtCom= 9.97D-01 WtEn= 2.99D-03
 Coeff-Com: -0.160D-01 0.328D-01 0.848D-01 0.215D+00 0.683D+00
 Coeff-En:   0.000D+00 0.000D+00 0.000D+00 0.000D+00 0.100D+01
 Coeff:     -0.159D-01 0.327D-01 0.846D-01 0.215D+00 0.684D+00
 Gap=     0.278 Goal=   None    Shift=    0.000
 RMSDP=3.12D-04 MaxDP=6.61D-02 DE=-4.62D-03 OVMax= 2.32D-03

 Cycle   6  Pass 1  IDiag  1:
 RMSU=  1.36D-04    CP:  7.31D-01  8.64D-01  9.25D-01  6.89D-01  9.09D-01
 E= -3905.79870056612     Delta-E=       -0.000138890025 Rises=F Damp=F
 DIIS: error= 8.96D-05 at cycle   6 NSaved=   6.
 NSaved= 6 IEnMin= 6 EnMin= -3905.79870056612     IErMin= 6 ErrMin= 8.96D-05
 ErrMax= 8.96D-05  0.00D+00 EMaxC= 1.00D-01 BMatC= 2.23D-05 BMatP= 1.81D-04
 IDIUse=1 WtCom= 1.00D+00 WtEn= 0.00D+00
 Coeff-Com: -0.203D-02 0.260D-02 0.436D-02 0.451D-01 0.312D+00 0.638D+00
 Coeff:     -0.203D-02 0.260D-02 0.436D-02 0.451D-01 0.312D+00 0.638D+00
 Gap=     0.278 Goal=   None    Shift=    0.000
 RMSDP=1.17D-04 MaxDP=2.16D-02 DE=-1.39D-04 OVMax= 9.23D-04

 Cycle   7  Pass 1  IDiag  1:
 RMSU=  5.90D-05    CP:  7.30D-01  8.60D-01  9.28D-01  6.92D-01  9.41D-01
                    CP:  8.42D-01
 E= -3905.79872049438     Delta-E=       -0.000019928264 Rises=F Damp=F
 DIIS: error= 2.03D-05 at cycle   7 NSaved=   7.
 NSaved= 7 IEnMin= 7 EnMin= -3905.79872049438     IErMin= 7 ErrMin= 2.03D-05
 ErrMax= 2.03D-05  0.00D+00 EMaxC= 1.00D-01 BMatC= 1.23D-06 BMatP= 2.23D-05
 IDIUse=1 WtCom= 1.00D+00 WtEn= 0.00D+00
 Coeff-Com:  0.145D-02-0.355D-02-0.110D-01-0.153D-01 0.878D-02 0.182D+00
 Coeff-Com:  0.838D+00
 Coeff:      0.145D-02-0.355D-02-0.110D-01-0.153D-01 0.878D-02 0.182D+00
 Coeff:      0.838D+00
 Gap=     0.278 Goal=   None    Shift=    0.000
 RMSDP=4.47D-05 MaxDP=7.07D-03 DE=-1.99D-05 OVMax= 3.10D-04

 Cycle   8  Pass 1  IDiag  1:
 RMSU=  1.78D-05    CP:  7.30D-01  8.59D-01  9.29D-01  6.92D-01  9.72D-01
                    CP:  9.46D-01  9.83D-01
 E= -3905.79872200197     Delta-E=       -0.000001507588 Rises=F Damp=F
 DIIS: error= 9.22D-06 at cycle   8 NSaved=   8.
 NSaved= 8 IEnMin= 8 EnMin= -3905.79872200197     IErMin= 8 ErrMin= 9.22D-06
 ErrMax= 9.22D-06  0.00D+00 EMaxC= 1.00D-01 BMatC= 1.59D-07 BMatP= 1.23D-06
 IDIUse=1 WtCom= 1.00D+00 WtEn= 0.00D+00
 Coeff-Com:  0.611D-03-0.132D-02-0.411D-02-0.916D-02-0.219D-01 0.174D-01
 Coeff-Com:  0.323D+00 0.695D+00
 Coeff:      0.611D-03-0.132D-02-0.411D-02-0.916D-02-0.219D-01 0.174D-01
 Coeff:      0.323D+00 0.695D+00
 Gap=     0.278 Goal=   None    Shift=    0.000
 RMSDP=1.61D-05 MaxDP=2.96D-03 DE=-1.51D-06 OVMax= 1.73D-04

 Cycle   9  Pass 1  IDiag  1:
 RMSU=  4.65D-06    CP:  7.30D-01  8.59D-01  9.29D-01  6.93D-01  9.79D-01
                    CP:  9.52D-01  1.03D+00  9.91D-01
 E= -3905.79872219926     Delta-E=       -0.000000197289 Rises=F Damp=F
 DIIS: error= 3.25D-06 at cycle   9 NSaved=   9.
 NSaved= 9 IEnMin= 9 EnMin= -3905.79872219926     IErMin= 9 ErrMin= 3.25D-06
 ErrMax= 3.25D-06  0.00D+00 EMaxC= 1.00D-01 BMatC= 1.27D-08 BMatP= 1.59D-07
 IDIUse=1 WtCom= 1.00D+00 WtEn= 0.00D+00
 Coeff-Com:  0.171D-04 0.812D-05 0.130D-04-0.118D-02-0.826D-02-0.146D-01
 Coeff-Com: -0.159D-02 0.193D+00 0.833D+00
 Coeff:      0.171D-04 0.812D-05 0.130D-04-0.118D-02-0.826D-02-0.146D-01
 Coeff:     -0.159D-02 0.193D+00 0.833D+00
 Gap=     0.278 Goal=   None    Shift=    0.000
 RMSDP=4.12D-06 MaxDP=7.67D-04 DE=-1.97D-07 OVMax= 6.62D-05

 Cycle  10  Pass 1  IDiag  1:
 RMSU=  1.53D-06    CP:  7.30D-01  8.58D-01  9.29D-01  6.92D-01  9.80D-01
                    CP:  9.58D-01  1.04D+00  1.04D+00  1.17D+00
 E= -3905.79872221990     Delta-E=       -0.000000020645 Rises=F Damp=F
 DIIS: error= 1.15D-06 at cycle  10 NSaved=  10.
 NSaved=10 IEnMin=10 EnMin= -3905.79872221990     IErMin=10 ErrMin= 1.15D-06
 ErrMax= 1.15D-06  0.00D+00 EMaxC= 1.00D-01 BMatC= 2.20D-09 BMatP= 1.27D-08
 IDIUse=1 WtCom= 1.00D+00 WtEn= 0.00D+00
 Coeff-Com: -0.529D-04 0.131D-03 0.402D-03 0.439D-03-0.118D-02-0.735D-02
 Coeff-Com: -0.336D-01 0.399D-02 0.332D+00 0.706D+00
 Coeff:     -0.529D-04 0.131D-03 0.402D-03 0.439D-03-0.118D-02-0.735D-02
 Coeff:     -0.336D-01 0.399D-02 0.332D+00 0.706D+00
 Gap=     0.278 Goal=   None    Shift=    0.000
 RMSDP=9.58D-07 MaxDP=9.68D-05 DE=-2.06D-08 OVMax= 3.78D-05

 Cycle  11  Pass 1  IDiag  1:
 RMSU=  5.12D-07    CP:  7.30D-01  8.58D-01  9.29D-01  6.92D-01  9.81D-01
                    CP:  9.60D-01  1.04D+00  1.07D+00  1.22D+00  9.78D-01
 E= -3905.79872222327     Delta-E=       -0.000000003369 Rises=F Damp=F
 DIIS: error= 5.87D-07 at cycle  11 NSaved=  11.
 NSaved=11 IEnMin=11 EnMin= -3905.79872222327     IErMin=11 ErrMin= 5.87D-07
 ErrMax= 5.87D-07  0.00D+00 EMaxC= 1.00D-01 BMatC= 1.57D-10 BMatP= 2.20D-09
 IDIUse=1 WtCom= 1.00D+00 WtEn= 0.00D+00
 Coeff-Com: -0.103D-04 0.205D-04 0.673D-04 0.209D-03 0.662D-03 0.380D-03
 Coeff-Com: -0.578D-02-0.213D-01-0.473D-01 0.141D+00 0.932D+00
 Coeff:     -0.103D-04 0.205D-04 0.673D-04 0.209D-03 0.662D-03 0.380D-03
 Coeff:     -0.578D-02-0.213D-01-0.473D-01 0.141D+00 0.932D+00
 Gap=     0.278 Goal=   None    Shift=    0.000
 RMSDP=2.68D-07 MaxDP=2.66D-05 DE=-3.37D-09 OVMax= 1.35D-05

 Cycle  12  Pass 1  IDiag  1:
 RMSU=  1.75D-07    CP:  7.30D-01  8.58D-01  9.29D-01  6.92D-01  9.81D-01
                    CP:  9.60D-01  1.04D+00  1.07D+00  1.23D+00  1.06D+00
                    CP:  1.04D+00
 E= -3905.79872222362     Delta-E=       -0.000000000351 Rises=F Damp=F
 DIIS: error= 1.83D-07 at cycle  12 NSaved=  12.
 NSaved=12 IEnMin=12 EnMin= -3905.79872222362     IErMin=12 ErrMin= 1.83D-07
 ErrMax= 1.83D-07  0.00D+00 EMaxC= 1.00D-01 BMatC= 2.37D-11 BMatP= 1.57D-10
 IDIUse=1 WtCom= 1.00D+00 WtEn= 0.00D+00
 Coeff-Com:  0.389D-06-0.289D-05-0.600D-05 0.409D-04 0.354D-03 0.806D-03
 Coeff-Com:  0.801D-03-0.775D-02-0.458D-01-0.152D-01 0.330D+00 0.737D+00
 Coeff:      0.389D-06-0.289D-05-0.600D-05 0.409D-04 0.354D-03 0.806D-03
 Coeff:      0.801D-03-0.775D-02-0.458D-01-0.152D-01 0.330D+00 0.737D+00
 Gap=     0.278 Goal=   None    Shift=    0.000
 RMSDP=1.01D-07 MaxDP=7.31D-06 DE=-3.51D-10 OVMax= 5.29D-06

 Cycle  13  Pass 1  IDiag  1:
 RMSU=  6.96D-08    CP:  7.30D-01  8.58D-01  9.29D-01  6.92D-01  9.81D-01
                    CP:  9.61D-01  1.04D+00  1.07D+00  1.23D+00  1.07D+00
                    CP:  1.12D+00  1.03D+00
 E= -3905.79872222377     Delta-E=       -0.000000000147 Rises=F Damp=F
 DIIS: error= 7.22D-08 at cycle  13 NSaved=  13.
 NSaved=13 IEnMin=13 EnMin= -3905.79872222377     IErMin=13 ErrMin= 7.22D-08
 ErrMax= 7.22D-08  0.00D+00 EMaxC= 1.00D-01 BMatC= 3.91D-12 BMatP= 2.37D-11
 IDIUse=1 WtCom= 1.00D+00 WtEn= 0.00D+00
 Coeff-Com:  0.201D-05-0.470D-05-0.133D-04-0.245D-04 0.671D-05 0.215D-03
 Coeff-Com:  0.130D-02 0.956D-03-0.830D-02-0.314D-01-0.347D-01 0.269D+00
 Coeff-Com:  0.803D+00
 Coeff:      0.201D-05-0.470D-05-0.133D-04-0.245D-04 0.671D-05 0.215D-03
 Coeff:      0.130D-02 0.956D-03-0.830D-02-0.314D-01-0.347D-01 0.269D+00
 Coeff:      0.803D+00
 Gap=     0.278 Goal=   None    Shift=    0.000
 RMSDP=6.18D-08 MaxDP=1.15D-05 DE=-1.47D-10 OVMax= 1.80D-06

 Cycle  14  Pass 1  IDiag  1:
 RMSU=  2.70D-08    CP:  7.30D-01  8.58D-01  9.29D-01  6.92D-01  9.81D-01
                    CP:  9.61D-01  1.04D+00  1.07D+00  1.23D+00  1.08D+00
                    CP:  1.13D+00  1.11D+00  9.14D-01
 E= -3905.79872222357     Delta-E=        0.000000000203 Rises=F Damp=F
 DIIS: error= 1.90D-08 at cycle  14 NSaved=  14.
 NSaved=14 IEnMin=13 EnMin= -3905.79872222377     IErMin=14 ErrMin= 1.90D-08
 ErrMax= 1.90D-08  0.00D+00 EMaxC= 1.00D-01 BMatC= 6.19D-13 BMatP= 3.91D-12
 IDIUse=1 WtCom= 1.00D+00 WtEn= 0.00D+00
 Coeff-Com:  0.900D-06-0.185D-05-0.542D-05-0.168D-04-0.395D-04 0.412D-06
 Coeff-Com:  0.508D-03 0.136D-02 0.174D-02-0.126D-01-0.537D-01 0.315D-01
 Coeff-Com:  0.343D+00 0.688D+00
 Coeff:      0.900D-06-0.185D-05-0.542D-05-0.168D-04-0.395D-04 0.412D-06
 Coeff:      0.508D-03 0.136D-02 0.174D-02-0.126D-01-0.537D-01 0.315D-01
 Coeff:      0.343D+00 0.688D+00
 Gap=     0.278 Goal=   None    Shift=    0.000
 RMSDP=1.73D-08 MaxDP=1.94D-06 DE= 2.03D-10 OVMax= 5.44D-07

 Cycle  15  Pass 1  IDiag  1:
 RMSU=  9.78D-09    CP:  7.30D-01  8.58D-01  9.29D-01  6.92D-01  9.81D-01
                    CP:  9.61D-01  1.04D+00  1.07D+00  1.23D+00  1.08D+00
                    CP:  1.14D+00  1.14D+00  9.82D-01  8.77D-01
 E= -3905.79872222369     Delta-E=       -0.000000000122 Rises=F Damp=F
 DIIS: error= 9.26D-09 at cycle  15 NSaved=  15.
 NSaved=15 IEnMin=13 EnMin= -3905.79872222377     IErMin=15 ErrMin= 9.26D-09
 ErrMax= 9.26D-09  0.00D+00 EMaxC= 1.00D-01 BMatC= 1.02D-13 BMatP= 6.19D-13
 IDIUse=1 WtCom= 1.00D+00 WtEn= 0.00D+00
 Coeff-Com: -0.201D-07 0.129D-06 0.283D-06-0.232D-05-0.161D-04-0.366D-04
 Coeff-Com: -0.123D-04 0.392D-03 0.210D-02 0.102D-03-0.161D-01-0.301D-01
 Coeff-Com:  0.461D-02 0.301D+00 0.738D+00
 Coeff:     -0.201D-07 0.129D-06 0.283D-06-0.232D-05-0.161D-04-0.366D-04
 Coeff:     -0.123D-04 0.392D-03 0.210D-02 0.102D-03-0.161D-01-0.301D-01
 Coeff:      0.461D-02 0.301D+00 0.738D+00
 Gap=     0.278 Goal=   None    Shift=    0.000
 RMSDP=9.06D-09 MaxDP=1.91D-06 DE=-1.22D-10 OVMax= 2.74D-07

 Cycle  16  Pass 1  IDiag  1:
 RMSU=  3.83D-09    CP:  7.30D-01  8.58D-01  9.29D-01  6.92D-01  9.81D-01
                    CP:  9.60D-01  1.04D+00  1.07D+00  1.23D+00  1.08D+00
                    CP:  1.14D+00  1.14D+00  9.71D-01  1.03D+00  8.46D-01
 E= -3905.79872222355     Delta-E=        0.000000000141 Rises=F Damp=F
 DIIS: error= 2.85D-09 at cycle  16 NSaved=  16.
 NSaved=16 IEnMin=13 EnMin= -3905.79872222377     IErMin=16 ErrMin= 2.85D-09
 ErrMax= 2.85D-09  0.00D+00 EMaxC= 1.00D-01 BMatC= 1.04D-14 BMatP= 1.02D-13
 IDIUse=1 WtCom= 1.00D+00 WtEn= 0.00D+00
 Coeff-Com: -0.126D-06 0.284D-06 0.785D-06 0.129D-05-0.134D-05-0.146D-04
 Coeff-Com: -0.685D-04-0.220D-04 0.514D-03 0.154D-02 0.215D-03-0.146D-01
 Coeff-Com: -0.410D-01 0.281D-01 0.280D+00 0.746D+00
 Coeff:     -0.126D-06 0.284D-06 0.785D-06 0.129D-05-0.134D-05-0.146D-04
 Coeff:     -0.685D-04-0.220D-04 0.514D-03 0.154D-02 0.215D-03-0.146D-01
 Coeff:     -0.410D-01 0.281D-01 0.280D+00 0.746D+00
 Gap=     0.278 Goal=   None    Shift=    0.000
 RMSDP=2.38D-09 MaxDP=3.35D-07 DE= 1.41D-10 OVMax= 8.57D-08

 Error on total polarization charges =  0.04198
 SCF Done:  E(RM062X) =  -3905.79872222     A.U. after   16 cycles
            NFock= 16  Conv=0.24D-08     -V/T= 2.0069
 KE= 3.878897127648D+03 PE=-1.387405361745D+04 EE= 3.769558566566D+03
 SMD-CDS (non-electrostatic) energy       (kcal/mol) =       5.57
 (included in total energy above)
 Leave Link  502 at Tue Aug  8 05:06:19 2023, MaxMem=   104857600 cpu:            2995.5 elap:            3002.9
 (Enter /private/chem/g16E03/g16/l601.exe)
 Copying SCF densities to generalized density rwf, IOpCl= 0 IROHF=0.

 **********************************************************************

            Population analysis using the SCF density.

 **********************************************************************

 Orbital symmetries:
       Occupied  (A) (A) (A) (A) (A) (A) (A) (A) (A) (A) (A) (A)
                 (A) (A) (A) (A) (A) (A) (A) (A) (A) (A) (A) (A)
                 (A) (A) (A) (A) (A) (A) (A) (A) (A) (A) (A) (A)
                 (A) (A) (A) (A) (A) (A) (A) (A) (A) (A) (A) (A)
                 (A) (A) (A) (A) (A) (A) (A) (A) (A) (A) (A) (A)
                 (A) (A) (A) (A) (A) (A) (A) (A) (A) (A) (A) (A)
                 (A) (A) (A) (A) (A) (A) (A) (A) (A) (A) (A) (A)
                 (A) (A) (A) (A) (A) (A) (A) (A) (A) (A) (A) (A)
       Virtual   (A) (A) (A) (A) (A) (A) (A) (A) (A) (A) (A) (A)
                 (A) (A) (A) (A) (A) (A) (A) (A) (A) (A) (A) (A)
                 (A) (A) (A) (A) (A) (A) (A) (A) (A) (A) (A) (A)
                 (A) (A) (A) (A) (A) (A) (A) (A) (A) (A) (A) (A)
                 (A) (A) (A) (A) (A) (A) (A) (A) (A) (A) (A) (A)
                 (A) (A) (A) (A) (A) (A) (A) (A) (A) (A) (A) (A)
                 (A) (A) (A) (A) (A) (A) (A) (A) (A) (A) (A) (A)
                 (A) (A) (A) (A) (A) (A) (A) (A) (A) (A) (A) (A)
                 (A) (A) (A) (A) (A) (A) (A) (A) (A) (A) (A) (A)
                 (A) (A) (A) (A) (A) (A) (A) (A) (A) (A) (A) (A)
                 (A) (A) (A) (A) (A) (A) (A) (A) (A) (A) (A) (A)
                 (A) (A) (A) (A) (A) (A) (A) (A) (A) (A) (A) (A)
                 (A) (A) (A) (A) (A) (A) (A) (A) (A) (A) (A) (A)
                 (A) (A) (A) (A) (A) (A) (A) (A) (A) (A) (A) (A)
                 (A) (A) (A) (A) (A) (A) (A) (A) (A) (A) (A) (A)
                 (A) (A) (A) (A) (A) (A) (A) (A) (A) (A) (A) (A)
                 (A) (A) (A) (A) (A) (A) (A) (A) (A) (A) (A) (A)
                 (A) (A) (A) (A) (A) (A) (A) (A) (A) (A) (A) (A)
                 (A) (A) (A) (A) (A) (A) (A) (A) (A) (A) (A) (A)
                 (A) (A) (A) (A) (A) (A) (A) (A) (A) (A) (A) (A)
                 (A) (A) (A) (A) (A) (A) (A) (A) (A) (A) (A) (A)
                 (A) (A) (A) (A) (A) (A) (A) (A) (A) (A) (A) (A)
                 (A) (A) (A) (A) (A) (A) (A) (A) (A) (A) (A) (A)
                 (A) (A) (A) (A) (A) (A) (A) (A) (A) (A) (A) (A)
                 (A) (A) (A) (A) (A) (A) (A) (A) (A) (A) (A) (A)
                 (A) (A) (A) (A) (A) (A) (A) (A) (A) (A) (A) (A)
                 (A) (A) (A) (A) (A) (A) (A) (A) (A) (A) (A) (A)
                 (A) (A) (A) (A) (A) (A) (A) (A) (A) (A) (A) (A)
                 (A) (A) (A) (A) (A) (A) (A) (A) (A) (A) (A) (A)
                 (A) (A) (A) (A) (A) (A) (A) (A) (A) (A) (A) (A)
                 (A) (A) (A) (A) (A) (A) (A) (A) (A) (A) (A) (A)
                 (A) (A) (A) (A) (A) (A) (A) (A) (A) (A) (A) (A)
                 (A) (A) (A) (A) (A) (A) (A) (A) (A) (A) (A) (A)
                 (A) (A) (A) (A) (A) (A) (A) (A) (A) (A) (A)
 The electronic state is 1-A.
 Alpha  occ. eigenvalues -- -485.50270 -90.21080 -62.78313 -57.31401 -57.31129
 Alpha  occ. eigenvalues --  -57.31097 -19.73526 -19.68656 -19.68399 -19.67314
 Alpha  occ. eigenvalues --  -19.67054 -14.88351 -10.65005 -10.63516 -10.63181
 Alpha  occ. eigenvalues --  -10.62602 -10.61738 -10.61464 -10.61450 -10.60591
 Alpha  occ. eigenvalues --  -10.60567 -10.60236 -10.59850 -10.59748 -10.58917
 Alpha  occ. eigenvalues --   -8.95306  -8.51904  -6.90700  -6.89659  -6.89622
 Alpha  occ. eigenvalues --   -6.44146  -6.44015  -6.43945  -2.93546  -2.93185
 Alpha  occ. eigenvalues --   -2.93156  -2.92230  -2.92230  -1.29370  -1.21463
 Alpha  occ. eigenvalues --   -1.19229  -1.17179  -1.14648  -1.13577  -0.98913
 Alpha  occ. eigenvalues --   -0.93411  -0.91608  -0.91273  -0.87617  -0.85734
 Alpha  occ. eigenvalues --   -0.84751  -0.81937  -0.78911  -0.73525  -0.72067
 Alpha  occ. eigenvalues --   -0.71692  -0.71242  -0.69561  -0.68014  -0.65361
 Alpha  occ. eigenvalues --   -0.63767  -0.62611  -0.61650  -0.60429  -0.58762
 Alpha  occ. eigenvalues --   -0.57377  -0.56862  -0.56314  -0.54820  -0.54056
 Alpha  occ. eigenvalues --   -0.53151  -0.52832  -0.51713  -0.51345  -0.50855
 Alpha  occ. eigenvalues --   -0.48588  -0.47829  -0.47532  -0.47181  -0.46356
 Alpha  occ. eigenvalues --   -0.46265  -0.45304  -0.45004  -0.43734  -0.43325
 Alpha  occ. eigenvalues --   -0.41978  -0.41865  -0.41036  -0.40565  -0.39527
 Alpha  occ. eigenvalues --   -0.38837  -0.36408  -0.36309  -0.35775  -0.33949
 Alpha  occ. eigenvalues --   -0.32203
 Alpha virt. eigenvalues --   -0.04438  -0.01346   0.00314   0.00782   0.01417
 Alpha virt. eigenvalues --    0.02054   0.02470   0.02573   0.03332   0.03567
 Alpha virt. eigenvalues --    0.03906   0.04148   0.04363   0.04833   0.04993
 Alpha virt. eigenvalues --    0.05149   0.05568   0.06439   0.06621   0.07174
 Alpha virt. eigenvalues --    0.07528   0.07877   0.08250   0.08679   0.09289
 Alpha virt. eigenvalues --    0.09535   0.09829   0.10039   0.10532   0.10743
 Alpha virt. eigenvalues --    0.11234   0.11746   0.11973   0.12063   0.12414
 Alpha virt. eigenvalues --    0.12653   0.13097   0.13871   0.13960   0.14331
 Alpha virt. eigenvalues --    0.14441   0.14703   0.14891   0.15470   0.15958
[...]
 065984,0.00032671,-0.00013502,0.00003127,-0.00458875,0.00223937,0.0015
 0156,0.00196126,-0.00067039,-0.00047770,0.08404397,-0.00001502,0.00000
 569,0.00002785,-0.00001239,-0.00002193,-0.00002287,-0.00005890,0.00023
 108,0.00020081,-0.00066529,0.00056896,-0.00007304,-0.00102604,-0.00069
 086,-0.00367880,0.00415929,0.00818818,-0.00666462,-0.00020010,0.000048
 14,0.00095632,-0.00007765,0.00079252,0.00128563,0.00292136,0.00557454,
 -0.00746133,-0.02877083,-0.08269668,0.07782372,-0.00565908,-0.03419977
 ,0.02667005,-0.00691656,0.00002790,0.00593190,0.00137479,-0.00016762,-
 0.00019448,0.00061120,0.00124313,-0.00167219,0.00025810,0.00003321,-0.
 00048264,0.00009538,-0.00001287,0.00015457,-0.00004407,-0.00010120,-0.
 00000671,-0.00004899,0.00006381,-0.00004988,0.00000048,-0.00004994,-0.
 00001116,0.00002129,0.00004005,0.00001913,-0.00000837,0.00002514,-0.00
 007405,0.00000220,-0.00000311,-0.00000924,0.00000323,0.00000514,0.0000
 0797,0.00000038,-0.00000136,-0.00000355,-0.00000143,0.00001064,-0.0000
 0707,0.00003561,0.00002983,0.00001601,0.00001895,-0.00006052,0.0000590
 5,0.00019447,-0.00014705,-0.00022845,0.00003795,-0.00006204,0.00002376
 ,-0.00011856,0.00040448,0.00008317,0.00008672,-0.00012498,-0.00014190,
 0.00164727,-0.00066276,-0.00059552,-0.00019937,0.00023522,0.00010381,0
 .03237940,0.10147257,-0.00001797,0.00000808,0.00003744,-0.00003357,-0.
 00001779,0.00000633,0.00011728,0.00006694,0.00000299,-0.00101587,0.000
 47525,0.00012901,-0.00140675,-0.00148576,-0.00418367,0.00866492,0.0084
 6829,-0.01584805,-0.00049420,-0.00040655,-0.00037923,0.00023191,-0.000
 57285,0.00004587,-0.00019599,0.00083704,-0.00109202,0.07605360,0.08698
 977,-0.26786770,-0.00240200,-0.00054965,0.00753723,0.00111067,0.000310
 84,-0.00056329,-0.00012670,-0.00002650,0.00002062,0.00049103,-0.001548
 46,-0.00035318,-0.00006474,0.00013674,-0.00012609,-0.00000222,-0.00001
 233,-0.00000550,-0.00001803,0.00001304,0.00000305,0.00001256,-0.000005
 49,0.00000764,-0.00000079,0.00000266,0.00000002,-0.00000967,-0.0000098
 6,-0.00001960,0.00000780,0.00006490,0.00002441,0.00000072,-0.00000534,
 -0.00001050,0.00000406,0.00000369,0.00000896,0.00000082,-0.00000083,-0
 .00000544,-0.00000133,0.00001702,-0.00001772,0.00004800,0.00004003,0.0
 0002861,-0.00000499,-0.00007283,-0.00001945,0.00025370,-0.00016355,-0.
 00024118,0.00005220,-0.00008072,-0.00000284,0.00002302,0.00038600,0.00
 106542,0.00019535,-0.00026557,-0.00008785,-0.00029255,-0.00018378,0.00
 104950,-0.00010037,-0.00044423,0.00083198,-0.08108751,-0.09197068,0.28
 001597,0.00000105,-0.00000004,-0.00000165,0.00000037,-0.00000071,0.000
 00220,-0.00000681,0.00000410,-0.00000303,0.00000903,-0.00000060,-0.000
 00302,-0.00000039,0.00000540,0.00002506,-0.00002425,0.00000921,-0.0000
 3504,-0.00000059,-0.00000461,0.00000100,-0.00002539,0.00004299,0.00002
 434,0.00006947,0.00002911,-0.00001466,-0.00016881,-0.00017993,0.000038
 41,-0.00021931,0.00085890,0.00015758,-0.00265576,0.00107724,-0.0008342
 6,0.00012216,-0.00028626,-0.00004118,0.00008806,-0.00034727,0.00069748
 ,0.00297826,0.00749314,-0.00844103,-0.04385155,0.00851355,-0.02005798,
 0.00595422,-0.00718641,0.00737134,0.00584615,-0.00326424,-0.00222527,-
 0.00026529,-0.00043827,0.00023392,-0.00111948,-0.00003636,0.00033561,0
 .00384238,-0.00272228,-0.00360041,-0.00000012,0.00000019,0.00000055,0.
 00000002,-0.00000002,0.00000025,0.00000002,0.00000004,0.00000023,0.000
 00001,-0.00000115,-0.00000052,-0.00000076,0.00000018,-0.00000089,0.000
 00078,0.00000044,0.00000215,-0.00000098,-0.00000015,0.00000163,-0.0000
 0147,0.00000059,-0.00000048,0.00000332,0.00000174,0.00000335,0.0000003
 9,0.00000262,0.00000150,-0.00000195,0.00000100,0.00000412,-0.00000927,
 0.00000745,0.00000088,0.00000986,0.00000133,0.00000582,0.03313238,0.00
 000047,-0.00000029,-0.00000077,0.00000037,0.00000058,0.00000096,-0.000
 00460,0.00000334,-0.00000079,0.00000428,-0.00000128,-0.00000374,0.0000
 0030,0.00000425,0.00001386,-0.00000610,0.00001361,-0.00000511,0.000005
 49,-0.00000552,0.00000217,-0.00000024,0.00000239,0.00000364,-0.0000018
 2,-0.00000603,-0.00000427,0.00006937,-0.00007032,-0.00002706,-0.000101
 54,-0.00008434,0.00020041,0.00002136,-0.00081099,-0.00173653,0.0001262
 5,0.00034831,0.00033520,-0.00029573,-0.00080462,-0.00035734,-0.0005859
 0,0.01040654,-0.00756553,0.00882655,-0.17836245,0.14712069,0.00206943,
 -0.01257423,0.02174041,-0.00335414,-0.00239774,-0.00042334,-0.00010004
 ,-0.00108640,0.00045988,-0.00008968,-0.00062352,-0.00070651,-0.0025246
 3,0.00008820,-0.00208130,-0.00000003,0.00000025,0.00000032,-0.00000013
 ,0.,-0.00000014,0.00000003,0.00000008,0.00000006,-0.00000003,-0.000000
 23,-0.00000022,-0.00000042,0.,-0.00000044,0.00000039,0.00000047,0.0000
 0119,-0.00000056,0.00000026,0.00000091,-0.00000095,0.00000069,0.000000
 09,-0.00000217,0.00000093,0.00000392,0.00000007,0.00000054,0.00000021,
 -0.00000100,0.00000218,0.00000145,0.00000153,-0.00000097,-0.00000209,0
 .00000106,0.00000349,0.00000215,-0.00579094,0.18435764,0.00000098,-0.0
 0000012,-0.00000132,0.00000093,0.00000066,0.00000115,-0.00000636,0.000
 00494,-0.00000188,0.00000800,-0.00000299,-0.00000816,-0.00000080,0.000
 00592,0.00002645,-0.00000834,0.00001718,-0.00002372,0.00000868,-0.0000
 1127,0.00000295,-0.00000488,0.00001620,0.00000738,0.00000794,-0.000019
 69,-0.00000096,0.00008239,-0.00014711,-0.00005303,-0.00019922,-0.00017
 666,0.00019240,0.00038661,0.00086744,-0.00374518,0.00030877,-0.0000194
 1,0.00072230,0.00075464,0.00090128,0.00132039,-0.00116306,0.01631473,-
 0.01421323,-0.02084540,0.14698764,-0.22948587,-0.00050263,-0.00491039,
 0.00819610,-0.00232201,-0.00071457,0.00158234,-0.00004974,-0.00056961,
 0.00011774,0.00027211,-0.00067843,0.00021243,-0.00349639,-0.00248810,-
 0.00211477,-0.00000015,0.00000018,0.00000055,-0.00000019,0.00000003,-0
 .00000018,0.00000004,-0.00000010,0.00000012,-0.00000012,-0.00000089,-0
 .00000011,-0.00000116,-0.00000034,-0.00000078,0.00000060,0.00000047,0.
 00000222,-0.00000127,0.00000096,0.00000189,-0.00000137,0.00000088,0.00
 000018,-0.00000072,-0.00000200,0.00000167,-0.00000010,0.00000201,0.000
 00108,-0.00000614,0.00000523,0.00000202,-0.00000010,-0.00000099,-0.000
 00012,0.00000518,-0.00000598,0.00000790,0.02513500,-0.15604627,0.23782
 665,-0.00000058,-0.00000001,0.00000093,-0.00000087,-0.00000025,-0.0000
 0125,0.00000394,-0.00000263,0.00000169,-0.00000507,0.00000165,0.000004
 03,0.00000189,-0.00000619,-0.00001460,0.00000573,-0.00000327,0.0000196
 2,0.00000088,0.00000563,-0.00000064,0.00000846,-0.00002029,-0.00001179
 ,-0.00002550,-0.00001002,0.00000792,0.00005361,0.00007580,0.00001159,0
 .00007476,-0.00034479,-0.00004041,0.00039331,0.00053152,-0.00040915,-0
 .00020642,-0.00003397,-0.00001687,-0.00005652,-0.00013110,0.00008024,0
 .00578173,-0.00331401,-0.00168406,0.00134553,-0.00253858,-0.00823548,-
 0.08929037,-0.03932407,-0.10765827,0.00227176,-0.00150327,-0.00048481,
 -0.00167416,0.00032016,0.00076383,0.00535548,-0.00120734,-0.00137203,-
 0.00087612,0.00021864,0.00048752,-0.00000004,-0.00000014,-0.00000039,0
 .00000021,0.00000007,0.00000006,0.00000002,0.00000007,-0.00000017,0.00
 000032,0.00000063,0.00000009,0.00000052,-0.00000015,0.00000027,-0.0000
 0040,-0.00000030,-0.00000144,0.00000054,-0.00000026,-0.00000107,0.0000
 0059,-0.00000024,0.00000014,-0.00000052,-0.00000025,-0.00000237,-0.000
 00002,-0.00000179,-0.00000085,0.00000129,-0.00000086,-0.00000129,0.000
 00381,-0.00000077,-0.00000005,-0.00000030,-0.00001169,-0.00000171,-0.0
 0357773,0.00160322,0.00147105,0.08102592,-0.00000153,0.00000021,0.0000
 0204,-0.00000058,-0.00000005,-0.00000211,0.00001008,-0.00000661,0.0000
 0204,-0.00001454,0.00000329,0.00001170,0.00000876,-0.00000423,-0.00002
 957,0.00001400,-0.00002445,0.00003400,-0.00000257,0.00001058,-0.000005
 66,0.00002380,-0.00003988,-0.00002187,-0.00006080,-0.00002231,0.000010
 52,0.00007858,0.00021035,-0.00002533,0.00020405,-0.00063307,-0.0000756
 4,-0.00013118,0.00145736,-0.00081724,-0.00071782,-0.00080455,-0.000562
 74,-0.00008442,-0.00038462,0.00033847,-0.00313001,-0.00395189,0.000609
 74,-0.01185133,-0.00509012,-0.02538093,-0.03993373,-0.08177742,-0.0779
 5034,0.00806443,0.00730819,0.01928052,0.00088721,0.00040681,0.00106152
 ,-0.00131974,-0.00214283,0.00359766,0.00020444,-0.00087069,0.00030697,
 0.00000008,-0.00000017,-0.00000083,0.00000007,0.00000010,0.00000006,0.
 00000007,-0.00000003,-0.00000015,0.00000002,0.00000127,0.,0.00000138,0
 .00000077,0.00000109,-0.00000118,-0.00000095,-0.00000365,0.00000168,-0
 .00000114,-0.00000272,0.00000221,-0.00000078,0.00000012,0.00000248,0.0
 0000158,-0.00000309,-0.00000014,-0.00000350,-0.00000157,0.00000097,-0.
 00000042,-0.00000292,0.00000871,-0.00000320,0.00000090,-0.00000678,-0.
 00001634,-0.00000090,0.00161702,0.00103069,-0.00022690,0.04546212,0.08
 470915,0.00000010,0.00000003,-0.00000014,0.00000049,0.00000018,0.00000
 033,-0.00000083,0.00000018,-0.00000031,0.00000117,-0.00000117,-0.00000
 157,-0.00000058,0.00000195,0.00000228,-0.00000084,-0.00000224,-0.00000
 519,-0.00000086,-0.00000128,-0.00000019,-0.00000167,0.00000579,0.00000
 326,0.00000413,0.00000076,-0.00000269,-0.00002060,-0.00000840,-0.00001
 559,-0.00001927,0.00006959,0.00000114,-0.00002399,0.00010742,0.0002936
 6,0.00011582,0.00005639,0.00001981,0.00000597,-0.00001299,-0.00001745,
 -0.00151562,0.00082861,0.00233549,-0.00027955,0.00136005,0.00308420,-0
 .10723461,-0.07611765,-0.28173377,-0.00862006,-0.00821419,-0.01470562,
 0.00020265,-0.00063585,0.00023562,-0.00140282,0.00369433,-0.00105065,0
 .00066738,0.00071847,0.00016392,-0.00000008,-0.00000003,0.00000007,-0.
 00000006,0.00000002,-0.00000008,0.00000004,-0.00000013,0.00000004,-0.0
 0000007,-0.00000024,0.00000010,-0.00000019,0.00000005,-0.00000004,0.00
 000015,0.00000002,0.00000033,-0.00000015,0.00000019,0.00000026,0.00000
 014,0.00000007,-0.00000011,0.00000021,-0.00000002,0.00000065,0.0000001
 5,0.00000027,0.00000027,0.00000030,0.00000020,-0.00000016,-0.00000043,
 -0.00000006,0.00000079,-0.00000037,0.00000396,0.00000123,0.00142870,-0
 .00050252,-0.00007179,0.11683337,0.07921553,0.29211091,-0.00000075,-0.
 00000006,0.00000096,-0.00000135,-0.00000019,-0.00000109,0.00000496,-0.
 00000294,0.00000178,-0.00000506,0.00000157,0.00000480,0.00000037,-0.00
 000639,-0.00001488,0.00001330,-0.00002132,0.00002027,-0.00000064,0.000
 00304,-0.00000455,0.00000722,-0.00002233,-0.00001109,-0.00002649,-0.00
 000562,0.00000078,0.00002852,0.00009626,-0.00005602,0.00009468,-0.0003
 6034,-0.00012090,0.00060513,0.00029310,0.00046679,-0.00012432,-0.00009
 224,-0.00010808,-0.00021962,-0.00018793,0.00015966,0.00548590,-0.00377
 381,-0.00210652,-0.00114574,-0.00021336,0.00013975,0.00421683,-0.00244
 619,-0.00363064,0.00189699,0.00763790,-0.00939648,-0.00131042,0.000864
 41,0.00066569,-0.04444336,0.00958192,-0.02112142,0.00538824,-0.0073558
 1,0.00754378,-0.00000004,-0.00000015,-0.00000043,0.00000035,0.00000005
 ,0.00000013,-0.00000004,0.00000014,-0.00000019,0.00000040,0.00000075,0
 .00000011,0.00000097,0.,0.00000052,-0.00000054,-0.00000016,-0.00000191
 ,0.00000089,-0.00000019,-0.00000123,0.00000042,-0.00000014,-0.00000011
 ,-0.00000059,0.00000066,-0.00000106,0.,-0.00000208,-0.00000103,0.00000
 151,-0.00000083,-0.00000068,0.00000364,-0.00000115,0.00000054,-0.00000
 659,-0.00000355,0.00000306,-0.00059217,0.00023754,0.00024542,0.0000110
 7,0.00046944,-0.00032190,0.03363598,-0.00000150,-0.00000032,0.00000225
 ,-0.00000006,0.00000071,-0.00000269,0.00000952,-0.00000649,0.00000234,
 -0.00001250,0.00000174,0.00000922,0.00000567,-0.00000412,-0.00003316,0
 .00001974,-0.00002558,0.00003600,-0.00000308,0.00000910,-0.00000450,0.
 00001886,-0.00003545,-0.00002056,-0.00005314,-0.00001638,0.00001254,0.
 00005579,0.00020024,-0.00004074,0.00018223,-0.00057539,-0.00016029,0.0
 0041085,0.00108393,0.00110186,-0.00028999,-0.00023926,-0.00033343,-0.0
 0032298,-0.00094336,0.00045452,-0.00348104,-0.00321749,-0.00089954,0.0
 0004576,-0.00029038,-0.00066936,-0.00248430,0.00024726,-0.00181459,-0.
 00205563,0.00829302,-0.01044068,0.00027451,0.00028311,-0.00100748,0.01
 026269,-0.17865445,0.14975847,0.00196093,-0.01387588,0.02177939,0.,-0.
 00000033,-0.00000081,0.00000017,0.00000025,-0.00000006,0.00000004,-0.0
 0000006,-0.00000026,0.00000016,0.00000096,0.00000048,0.00000114,0.0000
 0006,0.00000127,-0.00000103,-0.00000070,-0.00000326,0.00000111,-0.0000
 0116,-0.00000327,0.00000273,-0.00000081,0.00000028,0.00000070,0.000001
 06,-0.00000226,-0.00000005,-0.00000317,-0.00000174,0.00000221,-0.00000
 162,-0.00000313,0.00000697,-0.00000236,0.00000037,-0.00001052,-0.00001
 104,0.00000271,0.00023652,-0.00001107,0.00003482,0.00003789,0.00057212
 ,-0.00042854,-0.00637338,0.18622038,-0.00000041,-0.00000006,0.00000040
 ,-0.00000002,-0.00000003,-0.00000069,0.00000253,-0.00000122,0.00000070
 ,-0.00000250,0.00000102,0.00000189,0.00000102,-0.00000316,-0.00000861,
 0.00000403,-0.00000363,0.00000979,-0.00000125,0.00000229,-0.00000073,0
 .00000468,-0.00000833,-0.00000485,-0.00001164,-0.00000190,0.00000418,0
 .00001612,0.00004686,-0.00000411,0.00004502,-0.00010508,-0.00005081,-0
 .00002227,0.00003585,0.00043812,-0.00006904,-0.00002519,-0.00009571,-0
 .00012260,-0.00041666,0.00017542,-0.00215391,-0.00095837,0.00190360,0.
 00003020,-0.00101114,-0.00016418,-0.00360065,-0.00198022,-0.00226671,-
 0.00124503,0.01707781,-0.01534096,0.00124568,0.00062838,0.00075147,-0.
 02161870,0.14794185,-0.22939305,-0.00047436,-0.00495012,0.00782349,0.0
 0000018,0.,-0.00000011,-0.00000001,-0.00000013,0.00000013,-0.00000005,
 0.00000006,-0.00000001,-0.00000004,0.00000027,0.00000006,0.00000043,0.
 00000004,0.00000042,-0.00000036,-0.00000018,-0.00000070,0.00000037,-0.
 00000053,-0.00000046,0.00000038,-0.00000031,0.00000017,0.00000038,0.00
 000022,-0.00000016,-0.00000007,-0.00000065,-0.00000041,-0.00000018,-0.
 00000049,-0.00000048,0.00000154,-0.00000076,-0.00000008,-0.00000280,-0
 .00000299,0.00000044,0.00025585,0.00002268,-0.00005363,0.00005743,0.00
 078928,-0.00055220,0.02614730,-0.15689045,0.23691772,0.00000045,0.0000
 0077,-0.00000038,-0.00000133,-0.00000060,0.00000189,-0.00000161,0.0000
 0417,-0.00000196,0.00000945,0.00000335,0.00000109,-0.00001514,-0.00001
 253,0.00000916,-0.00001420,0.00003799,-0.00003219,-0.00000324,-0.00000
 180,0.00000320,-0.00001821,0.00003083,0.00002089,0.00005650,0.00004012
 ,-0.00000314,-0.00014916,-0.00009861,0.00015579,-0.00009727,0.00083174
 ,0.00005459,-0.00250739,0.00046858,0.00073687,-0.00032683,-0.00072880,
 -0.00014489,0.00013478,-0.00029765,0.00018343,0.00295872,-0.00066169,-
 0.00127121,0.00513195,-0.00122533,-0.00108923,-0.00097257,0.00009662,0
 .00060013,0.00604431,-0.00288272,-0.00185321,-0.00030481,-0.00015345,-
 0.00012316,0.00193435,-0.00226607,-0.00819842,-0.09076185,-0.03968032,
 -0.10897028,0.,-0.00000011,0.00000044,0.00000052,-0.00000016,-0.000000
 18,-0.00000004,0.00000013,-0.00000006,-0.00000029,-0.00000074,-0.00000
 064,0.00000051,0.00000015,-0.00000048,0.00000053,-0.00000046,0.0000017
 4,-0.00000053,0.00000088,0.00000229,-0.00000291,0.00000210,-0.00000006
 ,0.00000039,0.00000142,0.00000358,0.00000005,0.00000223,0.00000183,-0.
 00000133,-0.00000059,0.00000244,-0.00000708,0.00000236,0.00000074,0.00
 000259,-0.00001153,0.00000042,0.00046413,-0.00010705,-0.00007818,-0.00
 062677,0.00019476,0.00018377,-0.00351967,0.00155303,0.00151275,0.08259
 303,0.00000105,-0.00000165,-0.00000262,-0.00000018,0.00000059,0.000001
 05,-0.00001452,0.00000707,0.00000132,0.00002092,-0.00000159,-0.0000178
 6,-0.00000874,0.00001803,0.00003153,-0.00000033,0.00000221,-0.00000340
 ,0.00000546,-0.00000978,0.00000309,-0.00001032,0.00001283,0.00000523,0
 .00001543,-0.00000456,-0.00000324,0.00007185,-0.00012547,-0.00006901,-
 0.00027610,0.00000062,-0.00003820,0.00156905,-0.00066102,0.00217081,-0
 .00015297,-0.00027578,-0.00034994,-0.00007241,0.00049493,-0.00043924,0
 .00800161,0.01013866,0.01673969,-0.00134269,-0.00254646,0.00362849,0.0
 0011261,-0.00096877,0.00014169,-0.00313796,-0.00296481,0.00069530,-0.0
 0050112,-0.00099258,-0.00078085,-0.01169732,-0.00392721,-0.02500887,-0
 .03966615,-0.08284453,-0.07546297,0.00000002,0.00000033,0.00000070,-0.
 00000014,-0.00000034,0.00000014,0.00000015,0.00000039,0.00000041,0.000
 00059,-0.00000123,0.00000037,-0.00000082,-0.00000138,-0.00000052,0.000
 00061,0.00000199,0.00000252,-0.00000037,0.00000011,0.00000128,-0.00000
 213,0.00000214,0.00000031,-0.00000587,-0.00000567,-0.00000237,-0.00000
 073,0.00000202,0.00000018,-0.00000219,0.00000249,0.00000163,-0.0000026
 6,0.00000139,-0.00000090,-0.00000131,0.00002634,-0.00000146,0.00035648
 ,0.00057558,0.00086124,0.00019885,0.00006679,-0.00013875,0.00168338,0.
 00100292,-0.00018499,0.04485899,0.08297540,-0.00000111,-0.00000046,0.0
 0000128,-0.00000057,0.00000071,-0.00000219,0.00000837,-0.00000634,0.00
 000224,-0.00001093,0.,0.00000442,0.00000957,0.00001681,-0.00003374,0.0
 0000495,-0.00002891,0.00004262,-0.00000392,0.00001092,-0.00000504,0.00
 001872,-0.00003282,-0.00001873,-0.00004678,-0.00001113,0.00000354,0.00
 000854,0.00019009,-0.00005942,0.00028760,-0.00035124,0.00000066,-0.000
 52213,-0.00031242,-0.00243424,0.00005804,-0.00132252,0.00121273,0.0000
 3942,0.00007910,0.00053675,-0.00844440,-0.00703578,-0.01386495,-0.0011
 7661,0.00406105,-0.00070796,0.00060941,0.00010290,0.00039387,-0.001805
 00,0.00087190,0.00194366,0.00015956,0.00023747,0.00006041,-0.00027531,
 0.00158510,0.00348240,-0.10844751,-0.07522591,-0.27895411,0.00000028,-
 0.00000013,-0.00000061,0.00000009,-0.00000019,0.00000030,-0.00000015,0
 .00000016,-0.00000011,0.00000011,0.00000098,0.00000040,0.00000110,-0.0
 0000049,0.00000134,-0.00000080,-0.00000043,-0.00000290,0.00000091,-0.0
 0000163,-0.00000236,0.00000148,-0.00000202,0.00000036,0.00000498,0.000
 00369,-0.00000323,0.00000008,-0.00000293,-0.00000173,0.00000220,-0.000
 00078,-0.00000230,0.00000580,-0.00000240,0.00000021,-0.00000692,-0.000
 01056,-0.00000131,-0.00046754,-0.00044626,-0.00045118,0.00019893,-0.00
 014801,-0.00009681,0.00149889,-0.00043575,-0.00008932,0.11829064,0.078
 21821,0.28904505\\-0.00001097,-0.00000121,-0.00000154,-0.00001332,0.00
 000116,0.00000735,-0.00000523,0.00000391,-0.00000092,-0.00000829,-0.00
 000240,-0.00000086,0.00000055,0.00000114,0.00000166,-0.00000031,-0.000
 00301,0.00000233,0.00000011,-0.00000154,-0.00000611,-0.00000433,-0.000
 00195,0.00000105,0.00000024,-0.00000250,-0.00000331,0.00000779,0.00001
 434,0.00000216,-0.00000758,-0.00000666,-0.00000249,0.00001040,-0.00000
 033,0.00000925,0.00000129,0.00000089,0.00000324,0.00000951,0.00000132,
 -0.00000020,0.00000678,0.00000353,0.00000513,0.00000839,-0.00000264,-0
 .00000661,0.00000598,0.00000694,-0.00000353,0.00001531,-0.00000484,-0.
 00000085,0.00000886,0.00000024,-0.00000195,-0.00000012,-0.00000335,-0.
 00000031,0.00000698,0.00000472,-0.00000144,-0.00001325,0.00000120,0.00
 000526,-0.00001157,0.00000004,0.00000261,-0.00001212,-0.00000202,0.000
 00127,-0.00000463,-0.00000072,0.00000270,-0.00000798,-0.00000147,0.000
 00639,-0.00000628,-0.00000136,-0.00000400,-0.00000816,-0.00000360,-0.0
 0000130,-0.00000655,-0.00000138,-0.00000384,-0.00000044,0.00000078,0.0
 0000419,0.00000064,0.00000230,-0.00000077,0.00000039,0.00000008,-0.000
 00601,0.00000559,-0.00000003,-0.00000647,0.00000470,-0.00000108,0.0000
 0135,0.00001295,0.00000074,0.00000003,0.00001144,-0.00000116,-0.000004
 41,0.00000234,0.00000173,-0.00000026,0.00000089,-0.00000182,0.00000124
 \\\@


 ...THOSE SCIENCES ARE VAIN AND FULL OF ERRORS WHICH 
 ARE NOT BORN FROM EXPERIMENT, THE MOTHER OF CERTAINTY...

                          -- LEONARDO DA VINCI, 1452-1519
 Job cpu time:       0 days  8 hours  9 minutes 32.8 seconds.
 Elapsed time:       0 days  8 hours 11 minutes 28.0 seconds.
 File lengths (MBytes):  RWF=   1193 Int=      0 D2E=      0 Chk=     34 Scr=      1
 Normal termination of Gaussian 16 at Wed Aug  9 07:22:59 2023.
 
 Wed Aug  9 07:22:59 AM IDT 2023
 ark
 97179.658u 70.259s 27:07:21.23 99.5%	0+0k 18008+30175752io 173pf+0w
 
 ****** xrung16 messages ******
 Job 2-20_charged_pka is run from:
 /var/spool/scratch/tchem07/g16/2-20_charged_pka
 97179.651u 70.245s 27:07:20.81 99.5%	0+0k 17544+30175712io 127pf+0w
