 cputime      unlimited
 filesize     unlimited
 datasize     unlimited
 stacksize    unlimited
 coredumpsize 0 kbytes
 memoryuse    256000 kbytes
 vmemoryuse   unlimited
 descriptors  1024 
 memorylocked 8192 kbytes
 maxproc      382511 
 maxlocks     unlimited
 maxsignal    382511 
 maxmessage   819200 
 maxnice      0 
 maxrtprio    0 
 maxrttime    unlimited
 Tue Jul 25 06:12:58 PM IDT 2023
 ark
 
        *=*=*=*=*=*=*=*=*=*=*=*=*=*=*=*=*
        * xrung16: Running g16          *
        * (Command = time /bin/nice g16 *
        *=*=*=*=*=*=*=*=*=*=*=*=*=*=*=*=*
        g16root=/private/chem/g16E03
        g16 = /private/chem/g16E03/g16/g16
 
 Entering Gaussian System, Link 0=g16
 Initial command:
 /private/chem/g16E03/g16/l1.exe "/var/spool/scratch/tchem07/g16/2-2_neutral_pka/Gau-2645177.inp" -scrdir="/var/spool/scratch/tchem07/g16/2-2_neutral_pka/"
 Entering Link 1 = /private/chem/g16E03/g16/l1.exe PID=   2645178.
  
 Copyright (c) 1988,1990,1992,1993,1995,1998,2003,2009,2016,
            Gaussian, Inc.  All Rights Reserved.
  
 This is part of the Gaussian(R) 16 program.  It is based on
 the Gaussian(R) 09 system (copyright 2009, Gaussian, Inc.),
 the Gaussian(R) 03 system (copyright 2003, Gaussian, Inc.),
 the Gaussian(R) 98 system (copyright 1998, Gaussian, Inc.),
 the Gaussian(R) 94 system (copyright 1995, Gaussian, Inc.),
 the Gaussian 92(TM) system (copyright 1992, Gaussian, Inc.),
 the Gaussian 90(TM) system (copyright 1990, Gaussian, Inc.),
 the Gaussian 88(TM) system (copyright 1988, Gaussian, Inc.),
 the Gaussian 86(TM) system (copyright 1986, Carnegie Mellon
 University), and the Gaussian 82(TM) system (copyright 1983,
 Carnegie Mellon University). Gaussian is a federally registered
 trademark of Gaussian, Inc.
  
 This software contains proprietary and confidential information,
 including trade secrets, belonging to Gaussian, Inc.
  
 This software is provided under written license and may be
 used, copied, transmitted, or stored only in accord with that
 written license.
  
 The following legend is applicable only to US Government
 contracts under FAR:
  
                    RESTRICTED RIGHTS LEGEND
  
 Use, reproduction and disclosure by the US Government is
 subject to restrictions as set forth in subparagraphs (a)
 and (c) of the Commercial Computer Software - Restricted
 Rights clause in FAR 52.227-19.
  
 Gaussian, Inc.
 340 Quinnipiac St., Bldg. 40, Wallingford CT 06492
  
  
 ---------------------------------------------------------------
 Warning -- This program may not be used in any manner that
 competes with the business of Gaussian, Inc. or will provide
 assistance to any competitor of Gaussian, Inc.  The licensee
 of this program is prohibited from giving any competitor of
 Gaussian, Inc. access to this program.  By using this program,
 the user acknowledges that Gaussian, Inc. is engaged in the
 business of creating and licensing software in the field of
 computational chemistry and represents and warrants to the
 licensee that it is not a competitor of Gaussian, Inc. and that
 it will not use this program in any manner prohibited above.
 ---------------------------------------------------------------
  

 Cite this work as:
 Gaussian 16, Revision A.03,
 M. J. Frisch, G. W. Trucks, H. B. Schlegel, G. E. Scuseria, 
 M. A. Robb, J. R. Cheeseman, G. Scalmani, V. Barone, 
 G. A. Petersson, H. Nakatsuji, X. Li, M. Caricato, A. V. Marenich, 
 J. Bloino, B. G. Janesko, R. Gomperts, B. Mennucci, H. P. Hratchian, 
 J. V. Ortiz, A. F. Izmaylov, J. L. Sonnenberg, D. Williams-Young, 
 F. Ding, F. Lipparini, F. Egidi, J. Goings, B. Peng, A. Petrone, 
 T. Henderson, D. Ranasinghe, V. G. Zakrzewski, J. Gao, N. Rega, 
 G. Zheng, W. Liang, M. Hada, M. Ehara, K. Toyota, R. Fukuda, 
 J. Hasegawa, M. Ishida, T. Nakajima, Y. Honda, O. Kitao, H. Nakai, 
 T. Vreven, K. Throssell, J. A. Montgomery, Jr., J. E. Peralta, 
 F. Ogliaro, M. J. Bearpark, J. J. Heyd, E. N. Brothers, K. N. Kudin, 
 V. N. Staroverov, T. A. Keith, R. Kobayashi, J. Normand, 
 K. Raghavachari, A. P. Rendell, J. C. Burant, S. S. Iyengar, 
 J. Tomasi, M. Cossi, J. M. Millam, M. Klene, C. Adamo, R. Cammi, 
 J. W. Ochterski, R. L. Martin, K. Morokuma, O. Farkas, 
 J. B. Foresman, and D. J. Fox, Gaussian, Inc., Wallingford CT, 2016.
 
 ******************************************
 Gaussian 16:  ES64L-G16RevA.03 25-Dec-2016
                25-Jul-2023 
 ******************************************
 %chk=/home/ch/tchem07/g16/2-2_neutral_pka.chk
 -------------------------------------------------------
 #P M062X/6-31+G(d,p) Opt Freq SCRF=(SMD, Solvent=Water)
 -------------------------------------------------------
 1/18=20,19=15,26=3,38=1/1,3;
 2/9=110,12=2,17=6,18=5,40=1/2;
 3/5=1,6=6,7=111,11=2,25=1,30=1,70=32201,71=1,72=1,74=-55/1,2,3;
 4//1;
 5/5=2,38=5,53=1/2;
 6/7=2,8=2,9=2,10=2,28=1/1;
 7//1,2,3,16;
 1/18=20,19=15,26=3/3(2);
 2/9=110/2;
 99//99;
 2/9=110/2;
 3/5=1,6=6,7=111,11=2,25=1,30=1,70=32205,71=1,72=1,74=-55/1,2,3;
 4/5=5,16=3,69=1/1;
 5/5=2,38=5,53=1/2;
 7//1,2,3,16;
 1/18=20,19=15,26=3/3(-5);
 2/9=110/2;
 6/7=2,8=2,9=2,10=2,19=2,28=1/1;
 99/9=1/99;
 Leave Link    1 at Tue Jul 25 18:12:58 2023, MaxMem=           0 cpu:               0.0 elap:               0.0
 (Enter /private/chem/g16E03/g16/l101.exe)
 ---------------
 2-2_neutral_pka
 ---------------
 Symbolic Z-matrix:
 Charge =  0 Multiplicity = 1
 Br
 C                    1    B1
 C                    2    B2       1    A1
 C                    3    B3       2    A2       1    D1       0
 C                    4    B4       3    A3       2    D2       0
 S                    5    B5       4    A4       3    D3       0
 O                    6    B6       5    A5       4    D4       0
 O                    6    B7       5    A6       4    D5       0
 C                    8    B8       6    A7       5    D6       0
 C                    9    B9       8    A8       6    D7       0
 O                    10   B10      9    A9       8    D8       0
 C                    11   B11      10   A10      9    D9       0
 C                    12   B12      11   A11      10   D10      0
 N                    13   B13      12   A12      11   D11      0
 C                    13   B14      12   A13      11   D12      0
 O                    15   B15      13   A14      12   D13      0
 C                    16   B16      15   A15      13   D14      0
 O                    6    B17      5    A16      4    D15      0
 C                    5    B18      4    A17      3    D16      0
 C                    19   B19      5    A18      4    D17      0
 H                    3    B20      2    A19      1    D18      0
 H                    4    B21      3    A20      2    D19      0
 H                    9    B22      8    A21      6    D20      0
 H                    10   B23      9    A22      8    D21      0
 H                    12   B24      11   A23      10   D22      0
 H                    12   B25      11   A24      10   D23      0
 H                    13   B26      12   A25      11   D24      0
 H                    14   B27      13   A26      12   D25      0
 H                    14   B28      13   A27      12   D26      0
 H                    15   B29      13   A28      12   D27      0
 H                    17   B30      16   A29      15   D28      0
 H                    17   B31      16   A30      15   D29      0
 H                    19   B32      5    A31      4    D30      0
 H                    20   B33      19   A32      5    D31      0
       Variables:
  B1                    1.91                     
  B2                    1.3552                   
  B3                    1.54                     
  B4                    1.3552                   
  B5                    1.78                     
  B6                    1.4696                   
  B7                    1.67                     
  B8                    1.43                     
  B9                    1.49425                  
  B10                   1.43948                  
  B11                   1.47657                  
  B12                   1.50146                  
  B13                   1.47                     
  B14                   1.5164                   
  B15                   1.46057                  
  B16                   1.46307                  
  B17                   1.4696                   
  B18                   1.54                     
  B19                   1.3552                   
  B20                   1.07                     
  B21                   1.07                     
  B22                   1.07                     
  B23                   1.07                     
  B24                   1.07                     
  B25                   1.07                     
  B26                   1.07                     
  B27                   1.                       
  B28                   1.                       
  B29                   1.07                     
  B30                   1.07                     
  B31                   1.07                     
  B32                   1.07                     
  B33                   1.07                     
  A1                  120.                       
  A2                  120.                       
  A3                  120.                       
  A4                  120.                       
  A5                  109.47122                  
  A6                  109.47122                  
  A7                  109.47122                  
  A8                  114.02725                  
  A9                  115.70429                  
  A10                  95.66834                  
  A11                  98.58497                  
  A12                 118.46287                  
  A13                 100.52174                  
  A14                 111.63387                  
  A15                 101.33153                  
  A16                 109.47122                  
  A17                 120.                       
  A18                 120.                       
  A19                 120.                       
  A20                 120.                       
  A21                 107.55047                  
  A22                 115.32217                  
  A23                 113.48024                  
  A24                 111.71901                  
  A25                 105.37188                  
  A26                 109.47122                  
  A27                 109.47122                  
  A28                 115.03377                  
  A29                 112.3961                   
  A30                 110.84712                  
  A31                 120.                       
  A32                 120.                       
  D1                  180.                       
  D2                    0.                       
  D3                  180.                       
  D4                    0.                       
  D5                  120.                       
  D6                 -180.                       
  D7                 -175.63332                  
  D8                   50.33571                  
  D9                  157.51338                  
  D10                 -60.0533                   
  D11                 175.87114                  
  D12                  51.27271                  
  D13                -137.83835                  
  D14                  95.88696                  
  D15                -120.                       
  D16                   0.                       
  D17                   0.                       
  D18                   0.                       
  D19                -180.                       
  D20                  59.71147                  
  D21                 -71.2978                   
  D22                -179.44489                  
  D23                  58.30575                  
  D24                 -62.92971                  
  D25                  60.64646                  
  D26                -179.35354                  
  D27                  97.82848                  
  D28                 163.47438                  
  D29                 -75.04322                  
  D30                -180.                       
  D31                -180.                       
 
     6 tetrahedral angles replaced.
 ITRead=  0  0  0  0  0  0  0  0  0  0  0  0  0  0  0  0  0  0  0  0
 ITRead=  0  0  0  0  0  0  0  0  0  0  0  0  0  0
 MicOpt= -1 -1 -1 -1 -1 -1 -1 -1 -1 -1 -1 -1 -1 -1 -1 -1 -1 -1 -1 -1
 MicOpt= -1 -1 -1 -1 -1 -1 -1 -1 -1 -1 -1 -1 -1 -1
 NAtoms=     34 NQM=       34 NQMF=       0 NMMI=      0 NMMIF=      0
                NMic=       0 NMicF=      0.
                    Isotopes and Nuclear Properties:
 (Nuclear quadrupole moments (NQMom) in fm**2, nuclear magnetic moments (NMagM)
  in nuclear magnetons)

  Atom         1           2           3           4           5           6           7           8           9          10
 IAtWgt=          79          12          12          12          12          32          16          16          12          12
 AtmWgt=  78.9183361  12.0000000  12.0000000  12.0000000  12.0000000  31.9720718  15.9949146  15.9949146  12.0000000  12.0000000
 NucSpn=           3           0           0           0           0           0           0           0           0           0
 AtZEff=  -0.0000000  -0.0000000  -0.0000000  -0.0000000  -0.0000000  -0.0000000  -0.0000000  -0.0000000  -0.0000000  -0.0000000
 NQMom=   31.3000000   0.0000000   0.0000000   0.0000000   0.0000000   0.0000000   0.0000000   0.0000000   0.0000000   0.0000000
 NMagM=    2.1063990   0.0000000   0.0000000   0.0000000   0.0000000   0.0000000   0.0000000   0.0000000   0.0000000   0.0000000
 AtZNuc=  35.0000000   6.0000000   6.0000000   6.0000000   6.0000000  16.0000000   8.0000000   8.0000000   6.0000000   6.0000000

  Atom        11          12          13          14          15          16          17          18          19          20
 IAtWgt=          16          12          12          14          12          16          12          16          12          12
 AtmWgt=  15.9949146  12.0000000  12.0000000  14.0030740  12.0000000  15.9949146  12.0000000  15.9949146  12.0000000  12.0000000
 NucSpn=           0           0           0           2           0           0           0           0           0           0
 AtZEff=  -0.0000000  -0.0000000  -0.0000000  -0.0000000  -0.0000000  -0.0000000  -0.0000000  -0.0000000  -0.0000000  -0.0000000
 NQMom=    0.0000000   0.0000000   0.0000000   2.0440000   0.0000000   0.0000000   0.0000000   0.0000000   0.0000000   0.0000000
 NMagM=    0.0000000   0.0000000   0.0000000   0.4037610   0.0000000   0.0000000   0.0000000   0.0000000   0.0000000   0.0000000
 AtZNuc=   8.0000000   6.0000000   6.0000000   7.0000000   6.0000000   8.0000000   6.0000000   8.0000000   6.0000000   6.0000000

  Atom        21          22          23          24          25          26          27          28          29          30
 IAtWgt=           1           1           1           1           1           1           1           1           1           1
 AtmWgt=   1.0078250   1.0078250   1.0078250   1.0078250   1.0078250   1.0078250   1.0078250   1.0078250   1.0078250   1.0078250
 NucSpn=           1           1           1           1           1           1           1           1           1           1
 AtZEff=  -0.0000000  -0.0000000  -0.0000000  -0.0000000  -0.0000000  -0.0000000  -0.0000000  -0.0000000  -0.0000000  -0.0000000
 NQMom=    0.0000000   0.0000000   0.0000000   0.0000000   0.0000000   0.0000000   0.0000000   0.0000000   0.0000000   0.0000000
 NMagM=    2.7928460   2.7928460   2.7928460   2.7928460   2.7928460   2.7928460   2.7928460   2.7928460   2.7928460   2.7928460
 AtZNuc=   1.0000000   1.0000000   1.0000000   1.0000000   1.0000000   1.0000000   1.0000000   1.0000000   1.0000000   1.0000000

  Atom        31          32          33          34
 IAtWgt=           1           1           1           1
 AtmWgt=   1.0078250   1.0078250   1.0078250   1.0078250
 NucSpn=           1           1           1           1
 AtZEff=  -0.0000000  -0.0000000  -0.0000000  -0.0000000
 NQMom=    0.0000000   0.0000000   0.0000000   0.0000000
 NMagM=    2.7928460   2.7928460   2.7928460   2.7928460
 AtZNuc=   1.0000000   1.0000000   1.0000000   1.0000000
 Leave Link  101 at Tue Jul 25 18:12:59 2023, MaxMem=   104857600 cpu:               0.2 elap:               0.2
 (Enter /private/chem/g16E03/g16/l103.exe)

 GradGradGradGradGradGradGradGradGradGradGradGradGradGradGradGradGradGrad
 Berny optimization.
 Initialization pass.
                           ----------------------------
                           !    Initial Parameters    !
                           ! (Angstroms and Degrees)  !
 --------------------------                            --------------------------
 ! Name  Definition              Value          Derivative Info.                !
 --------------------------------------------------------------------------------
 ! R1    R(1,2)                  1.91           estimate D2E/DX2                !
 ! R2    R(2,3)                  1.3552         estimate D2E/DX2                !
 ! R3    R(2,20)                 1.54           estimate D2E/DX2                !
 ! R4    R(3,4)                  1.54           estimate D2E/DX2                !
 ! R5    R(3,21)                 1.07           estimate D2E/DX2                !
 ! R6    R(4,5)                  1.3552         estimate D2E/DX2                !
 ! R7    R(4,22)                 1.07           estimate D2E/DX2                !
 ! R8    R(5,6)                  1.78           estimate D2E/DX2                !
 ! R9    R(5,19)                 1.54           estimate D2E/DX2                !
 ! R10   R(6,7)                  1.4696         estimate D2E/DX2                !
 ! R11   R(6,8)                  1.67           estimate D2E/DX2                !
 ! R12   R(6,18)                 1.4696         estimate D2E/DX2                !
 ! R13   R(8,9)                  1.43           estimate D2E/DX2                !
 ! R14   R(9,10)                 1.4943         estimate D2E/DX2                !
 ! R15   R(9,17)                 1.5447         estimate D2E/DX2                !
 ! R16   R(9,23)                 1.07           estimate D2E/DX2                !
 ! R17   R(10,11)                1.4395         estimate D2E/DX2                !
 ! R18   R(10,15)                1.5264         estimate D2E/DX2                !
 ! R19   R(10,24)                1.07           estimate D2E/DX2                !
 ! R20   R(11,12)                1.4766         estimate D2E/DX2                !
 ! R21   R(12,13)                1.5015         estimate D2E/DX2                !
 ! R22   R(12,25)                1.07           estimate D2E/DX2                !
 ! R23   R(12,26)                1.07           estimate D2E/DX2                !
 ! R24   R(13,14)                1.47           estimate D2E/DX2                !
 ! R25   R(13,15)                1.5164         estimate D2E/DX2                !
 ! R26   R(13,27)                1.07           estimate D2E/DX2                !
 ! R27   R(14,28)                1.0            estimate D2E/DX2                !
 ! R28   R(14,29)                1.0            estimate D2E/DX2                !
 ! R29   R(15,16)                1.4606         estimate D2E/DX2                !
 ! R30   R(15,30)                1.07           estimate D2E/DX2                !
 ! R31   R(16,17)                1.4631         estimate D2E/DX2                !
 ! R32   R(17,31)                1.07           estimate D2E/DX2                !
 ! R33   R(17,32)                1.07           estimate D2E/DX2                !
 ! R34   R(19,20)                1.3552         estimate D2E/DX2                !
 ! R35   R(19,33)                1.07           estimate D2E/DX2                !
 ! R36   R(20,34)                1.07           estimate D2E/DX2                !
 ! A1    A(1,2,3)              120.0            estimate D2E/DX2                !
 ! A2    A(1,2,20)             120.0            estimate D2E/DX2                !
 ! A3    A(3,2,20)             120.0            estimate D2E/DX2                !
 ! A4    A(2,3,4)              120.0            estimate D2E/DX2                !
 ! A5    A(2,3,21)             120.0            estimate D2E/DX2                !
 ! A6    A(4,3,21)             120.0            estimate D2E/DX2                !
 ! A7    A(3,4,5)              120.0            estimate D2E/DX2                !
 ! A8    A(3,4,22)             120.0            estimate D2E/DX2                !
 ! A9    A(5,4,22)             120.0            estimate D2E/DX2                !
 ! A10   A(4,5,6)              120.0            estimate D2E/DX2                !
 ! A11   A(4,5,19)             120.0            estimate D2E/DX2                !
 ! A12   A(6,5,19)             120.0            estimate D2E/DX2                !
 ! A13   A(5,6,7)              109.4712         estimate D2E/DX2                !
 ! A14   A(5,6,8)              109.4712         estimate D2E/DX2                !
 ! A15   A(5,6,18)             109.4712         estimate D2E/DX2                !
 ! A16   A(7,6,8)              109.4712         estimate D2E/DX2                !
 ! A17   A(7,6,18)             109.4712         estimate D2E/DX2                !
 ! A18   A(8,6,18)             109.4712         estimate D2E/DX2                !
 ! A19   A(6,8,9)              109.4712         estimate D2E/DX2                !
 ! A20   A(8,9,10)             114.0272         estimate D2E/DX2                !
 ! A21   A(8,9,17)             115.4991         estimate D2E/DX2                !
 ! A22   A(8,9,23)             107.5505         estimate D2E/DX2                !
 ! A23   A(10,9,17)             97.3304         estimate D2E/DX2                !
 ! A24   A(10,9,23)            111.8643         estimate D2E/DX2                !
 ! A25   A(17,9,23)            110.4134         estimate D2E/DX2                !
 ! A26   A(9,10,11)            115.7043         estimate D2E/DX2                !
 ! A27   A(9,10,15)            100.9118         estimate D2E/DX2                !
 ! A28   A(9,10,24)            115.3222         estimate D2E/DX2                !
 ! A29   A(11,10,15)           106.1711         estimate D2E/DX2                !
 ! A30   A(11,10,24)           103.985          estimate D2E/DX2                !
 ! A31   A(15,10,24)           114.7954         estimate D2E/DX2                !
 ! A32   A(10,11,12)            95.6683         estimate D2E/DX2                !
 ! A33   A(11,12,13)            98.585          estimate D2E/DX2                !
 ! A34   A(11,12,25)           113.4802         estimate D2E/DX2                !
 ! A35   A(11,12,26)           111.719          estimate D2E/DX2                !
 ! A36   A(13,12,25)           112.6821         estimate D2E/DX2                !
 ! A37   A(13,12,26)           112.4013         estimate D2E/DX2                !
 ! A38   A(25,12,26)           107.8927         estimate D2E/DX2                !
 ! A39   A(12,13,14)           118.4629         estimate D2E/DX2                !
 ! A40   A(12,13,15)           100.5217         estimate D2E/DX2                !
 ! A41   A(12,13,27)           105.3719         estimate D2E/DX2                !
 ! A42   A(14,13,15)           113.8137         estimate D2E/DX2                !
 ! A43   A(14,13,27)           108.2264         estimate D2E/DX2                !
 ! A44   A(15,13,27)           109.8916         estimate D2E/DX2                !
 ! A45   A(13,14,28)           109.4712         estimate D2E/DX2                !
 ! A46   A(13,14,29)           109.4712         estimate D2E/DX2                !
 ! A47   A(28,14,29)           109.4712         estimate D2E/DX2                !
 ! A48   A(10,15,13)           101.2047         estimate D2E/DX2                !
 ! A49   A(10,15,16)           109.2077         estimate D2E/DX2                !
 ! A50   A(10,15,30)           110.9056         estimate D2E/DX2                !
 ! A51   A(13,15,16)           111.6339         estimate D2E/DX2                !
 ! A52   A(13,15,30)           115.0338         estimate D2E/DX2                !
 ! A53   A(16,15,30)           108.6036         estimate D2E/DX2                !
 ! A54   A(15,16,17)           101.3315         estimate D2E/DX2                !
 ! A55   A(9,17,16)            101.9584         estimate D2E/DX2                !
 ! A56   A(9,17,31)            112.7825         estimate D2E/DX2                !
 ! A57   A(9,17,32)            110.3851         estimate D2E/DX2                !
 ! A58   A(16,17,31)           112.3961         estimate D2E/DX2                !
 ! A59   A(16,17,32)           110.8471         estimate D2E/DX2                !
 ! A60   A(31,17,32)           108.3997         estimate D2E/DX2                !
 ! A61   A(5,19,20)            120.0            estimate D2E/DX2                !
 ! A62   A(5,19,33)            120.0            estimate D2E/DX2                !
 ! A63   A(20,19,33)           120.0            estimate D2E/DX2                !
 ! A64   A(2,20,19)            120.0            estimate D2E/DX2                !
 ! A65   A(2,20,34)            120.0            estimate D2E/DX2                !
 ! A66   A(19,20,34)           120.0            estimate D2E/DX2                !
 ! D1    D(1,2,3,4)            180.0            estimate D2E/DX2                !
 ! D2    D(1,2,3,21)             0.0            estimate D2E/DX2                !
 ! D3    D(20,2,3,4)             0.0            estimate D2E/DX2                !
 ! D4    D(20,2,3,21)          180.0            estimate D2E/DX2                !
 ! D5    D(1,2,20,19)          180.0            estimate D2E/DX2                !
 ! D6    D(1,2,20,34)            0.0            estimate D2E/DX2                !
 ! D7    D(3,2,20,19)            0.0            estimate D2E/DX2                !
 ! D8    D(3,2,20,34)          180.0            estimate D2E/DX2                !
 ! D9    D(2,3,4,5)              0.0            estimate D2E/DX2                !
 ! D10   D(2,3,4,22)           180.0            estimate D2E/DX2                !
 ! D11   D(21,3,4,5)           180.0            estimate D2E/DX2                !
 ! D12   D(21,3,4,22)            0.0            estimate D2E/DX2                !
 ! D13   D(3,4,5,6)            180.0            estimate D2E/DX2                !
 ! D14   D(3,4,5,19)             0.0            estimate D2E/DX2                !
 ! D15   D(22,4,5,6)             0.0            estimate D2E/DX2                !
 ! D16   D(22,4,5,19)          180.0            estimate D2E/DX2                !
 ! D17   D(4,5,6,7)              0.0            estimate D2E/DX2                !
 ! D18   D(4,5,6,8)            120.0            estimate D2E/DX2                !
 ! D19   D(4,5,6,18)          -120.0            estimate D2E/DX2                !
 ! D20   D(19,5,6,7)           180.0            estimate D2E/DX2                !
 ! D21   D(19,5,6,8)           -60.0            estimate D2E/DX2                !
 ! D22   D(19,5,6,18)           60.0            estimate D2E/DX2                !
 ! D23   D(4,5,19,20)            0.0            estimate D2E/DX2                !
 ! D24   D(4,5,19,33)          180.0            estimate D2E/DX2                !
 ! D25   D(6,5,19,20)          180.0            estimate D2E/DX2                !
 ! D26   D(6,5,19,33)            0.0            estimate D2E/DX2                !
 ! D27   D(5,6,8,9)            180.0            estimate D2E/DX2                !
 ! D28   D(7,6,8,9)            -60.0            estimate D2E/DX2                !
 ! D29   D(18,6,8,9)            60.0            estimate D2E/DX2                !
 ! D30   D(6,8,9,10)          -175.6333         estimate D2E/DX2                !
 ! D31   D(6,8,9,17)           -64.0781         estimate D2E/DX2                !
 ! D32   D(6,8,9,23)            59.7115         estimate D2E/DX2                !
 ! D33   D(8,9,10,11)           50.3357         estimate D2E/DX2                !
 ! D34   D(8,9,10,15)          164.3888         estimate D2E/DX2                !
 ! D35   D(8,9,10,24)          -71.2978         estimate D2E/DX2                !
 ! D36   D(17,9,10,11)         -71.8435         estimate D2E/DX2                !
 ! D37   D(17,9,10,15)          42.2095         estimate D2E/DX2                !
 ! D38   D(17,9,10,24)         166.523          estimate D2E/DX2                !
 ! D39   D(23,9,10,11)         172.6545         estimate D2E/DX2                !
 ! D40   D(23,9,10,15)         -73.2925         estimate D2E/DX2                !
 ! D41   D(23,9,10,24)          51.0209         estimate D2E/DX2                !
 ! D42   D(8,9,17,16)         -175.4631         estimate D2E/DX2                !
 ! D43   D(8,9,17,31)           63.7818         estimate D2E/DX2                !
 ! D44   D(8,9,17,32)          -57.6377         estimate D2E/DX2                !
 ! D45   D(10,9,17,16)         -54.3862         estimate D2E/DX2                !
 ! D46   D(10,9,17,31)        -175.1414         estimate D2E/DX2                !
 ! D47   D(10,9,17,32)          63.4391         estimate D2E/DX2                !
 ! D48   D(23,9,17,16)          62.2621         estimate D2E/DX2                !
 ! D49   D(23,9,17,31)         -58.493          estimate D2E/DX2                !
 ! D50   D(23,9,17,32)        -179.9125         estimate D2E/DX2                !
 ! D51   D(9,10,11,12)         157.5134         estimate D2E/DX2                !
 ! D52   D(15,10,11,12)         46.5159         estimate D2E/DX2                !
 ! D53   D(24,10,11,12)        -74.9649         estimate D2E/DX2                !
 ! D54   D(9,10,15,13)        -136.4829         estimate D2E/DX2                !
 ! D55   D(9,10,15,16)         -18.6428         estimate D2E/DX2                !
 ! D56   D(9,10,15,30)         101.0076         estimate D2E/DX2                !
 ! D57   D(11,10,15,13)        -15.4311         estimate D2E/DX2                !
 ! D58   D(11,10,15,16)        102.409          estimate D2E/DX2                !
 ! D59   D(11,10,15,30)       -137.9406         estimate D2E/DX2                !
 ! D60   D(24,10,15,13)         98.8452         estimate D2E/DX2                !
 ! D61   D(24,10,15,16)       -143.3147         estimate D2E/DX2                !
 ! D62   D(24,10,15,30)        -23.6643         estimate D2E/DX2                !
 ! D63   D(10,11,12,13)        -60.0533         estimate D2E/DX2                !
 ! D64   D(10,11,12,25)       -179.4449         estimate D2E/DX2                !
 ! D65   D(10,11,12,26)         58.3057         estimate D2E/DX2                !
 ! D66   D(11,12,13,14)        175.8711         estimate D2E/DX2                !
 ! D67   D(11,12,13,15)         51.2727         estimate D2E/DX2                !
 ! D68   D(11,12,13,27)        -62.9297         estimate D2E/DX2                !
 ! D69   D(25,12,13,14)        -64.1407         estimate D2E/DX2                !
 ! D70   D(25,12,13,15)        171.2608         estimate D2E/DX2                !
 ! D71   D(25,12,13,27)         57.0584         estimate D2E/DX2                !
 ! D72   D(26,12,13,14)         58.0299         estimate D2E/DX2                !
 ! D73   D(26,12,13,15)        -66.5685         estimate D2E/DX2                !
 ! D74   D(26,12,13,27)        179.229          estimate D2E/DX2                !
 ! D75   D(12,13,14,28)         60.6465         estimate D2E/DX2                !
 ! D76   D(12,13,14,29)       -179.3535         estimate D2E/DX2                !
 ! D77   D(15,13,14,28)        178.441          estimate D2E/DX2                !
 ! D78   D(15,13,14,29)        -61.559          estimate D2E/DX2                !
 ! D79   D(27,13,14,28)        -59.0875         estimate D2E/DX2                !
 ! D80   D(27,13,14,29)         60.9125         estimate D2E/DX2                !
 ! D81   D(12,13,15,10)        -21.7748         estimate D2E/DX2                !
 ! D82   D(12,13,15,16)       -137.8384         estimate D2E/DX2                !
 ! D83   D(12,13,15,30)         97.8285         estimate D2E/DX2                !
 ! D84   D(14,13,15,10)       -149.496          estimate D2E/DX2                !
 ! D85   D(14,13,15,16)         94.4404         estimate D2E/DX2                !
 ! D86   D(14,13,15,30)        -29.8927         estimate D2E/DX2                !
 ! D87   D(27,13,15,10)         88.9528         estimate D2E/DX2                !
 ! D88   D(27,13,15,16)        -27.1107         estimate D2E/DX2                !
 ! D89   D(27,13,15,30)       -151.4439         estimate D2E/DX2                !
 ! D90   D(10,15,16,17)        -15.1848         estimate D2E/DX2                !
 ! D91   D(13,15,16,17)         95.887          estimate D2E/DX2                !
 ! D92   D(30,15,16,17)       -136.247          estimate D2E/DX2                !
 ! D93   D(15,16,17,9)          42.4505         estimate D2E/DX2                !
 ! D94   D(15,16,17,31)        163.4744         estimate D2E/DX2                !
 ! D95   D(15,16,17,32)        -75.0432         estimate D2E/DX2                !
 ! D96   D(5,19,20,2)            0.0            estimate D2E/DX2                !
 ! D97   D(5,19,20,34)         180.0            estimate D2E/DX2                !
 ! D98   D(33,19,20,2)         180.0            estimate D2E/DX2                !
 ! D99   D(33,19,20,34)          0.0            estimate D2E/DX2                !
 --------------------------------------------------------------------------------
 Trust Radius=3.00D-01 FncErr=1.00D-07 GrdErr=1.00D-06 EigMax=2.50D+02 EigMin=1.00D-04
 Number of steps in this run=    204 maximum allowed number of steps=    204.
 GradGradGradGradGradGradGradGradGradGradGradGradGradGradGradGradGradGrad

 Leave Link  103 at Tue Jul 25 18:12:59 2023, MaxMem=   104857600 cpu:               0.0 elap:               0.0
 (Enter /private/chem/g16E03/g16/l202.exe)
                          Input orientation:                          
 ---------------------------------------------------------------------
 Center     Atomic      Atomic             Coordinates (Angstroms)
 Number     Number       Type             X           Y           Z
 ---------------------------------------------------------------------
      1         35           0        0.000000    0.000000    0.000000
      2          6           0        0.000000    0.000000    1.910000
      3          6           0        1.173638    0.000000    2.587600
      4          6           0        1.173638    0.000000    4.127600
      5          6           0        0.000000    0.000000    4.805200
      6         16           0        0.000000    0.000000    6.585200
      7          8           0        1.385552    0.000000    7.075067
      8          8           0       -0.787246    1.363549    7.141867
      9          6           0       -0.787246    1.363549    8.571867
     10          6           0       -1.557645    2.490094    9.180283
     11          8           0       -2.893990    2.675430    8.678348
     12          6           0       -3.396185    3.398138    9.863990
     13          6           0       -3.160309    2.330982   10.893512
     14          7           0       -3.438889    2.643195   12.302702
     15          6           0       -1.707774    1.995088   10.616390
     16          8           0       -1.471393    0.554300   10.655220
     17          6           0       -1.568477    0.208727    9.236862
     18          8           0       -0.692776   -1.199923    7.075067
     19          6           0       -1.333679    0.000000    4.035200
     20          6           0       -1.333679    0.000000    2.680000
     21          1           0        2.100285    0.000000    2.052600
     22          1           0        2.100285    0.000000    4.662600
     23          1           0        0.232935    1.358412    8.894521
     24          1           0       -1.108672    3.456495    9.083366
     25          1           0       -4.426192    3.677844    9.788154
     26          1           0       -2.828336    4.284125   10.057575
     27          1           0       -3.785181    1.512720   10.602164
     28          1           0       -4.405145    2.878612   12.407244
     29          1           0       -3.226731    1.846654   12.868838
     30          1           0       -1.001210    2.474426   11.261295
     31          1           0       -1.150114   -0.752336    9.021852
     32          1           0       -2.588193    0.213368    8.912738
     33          1           0       -2.260326    0.000000    4.570200
     34          1           0       -2.260326    0.000000    2.145000
 ---------------------------------------------------------------------
                    Distance matrix (angstroms):
                    1          2          3          4          5
     1  Br   0.000000
     2  C    1.910000   0.000000
     3  C    2.841320   1.355200   0.000000
     4  C    4.291213   2.509019   1.540000   0.000000
     5  C    4.805200   2.895200   2.509019   1.355200   0.000000
     6  S    6.585200   4.675200   4.166321   2.723458   1.780000
     7  O    7.209461   5.347679   4.492468   2.955075   2.659333
     8  O    7.313363   5.463648   5.142536   3.845794   2.817629
     9  C    8.715269   6.845399   6.443274   5.045378   4.082499
    10  C    9.638694   7.841163   7.558038   6.260198   5.269552
    11  O    9.531360   7.832218   7.797482   6.664295   5.525792
    12  C   10.971769   9.292329   9.239939   8.083118   6.976588
    13  C   11.579708   9.804311   9.654260   8.366250   7.244900
    14  N   13.044881  11.261469  11.074524   9.751624   8.661696
    15  C   10.936389   9.093850   8.760387   7.374775   6.377053
    16  O   10.770606   8.885444   8.508227   7.064931   6.057638
    17  C    9.371409   7.495772   7.195516   5.802355   4.705669
    18  O    7.209461   5.347679   5.006064   3.689292   2.659333
    19  C    4.249887   2.509019   2.895200   2.509019   1.540000
    20  C    2.993510   1.540000   2.509019   2.895200   2.509019
    21  H    2.936727   2.105120   1.070000   2.272510   3.462370
    22  H    5.113808   3.462370   2.272510   1.070000   2.105120
    23  H    9.000669   7.119204   6.519774   5.045170   4.315331
    24  H    9.781823   8.039509   7.703978   6.458786   5.610635
    25  H   11.354544   9.756178   9.835273   8.770775   7.612328
    26  H   11.291945   9.629963   9.495791   8.338712   7.344430
    27  H   11.358776   9.600502   9.545231   8.294467   7.086657
    28  H   13.477070  11.742395  11.654812  10.390463   9.245690
    29  H   13.395108  11.572297  11.334780   9.959047   8.879425
    30  H   11.573330   9.724809   9.278239   7.857630   6.986155
    31  H    9.125929   7.243425   6.882255   5.469875   4.434966
    32  H    9.283381   7.468775   7.362354   6.090520   4.859643
    33  H    5.098608   3.490808   3.965200   3.462370   2.272510
    34  H    3.116103   2.272510   3.462370   3.965200   3.490808
                    6          7          8          9         10
     6  S    0.000000
     7  O    1.469600   0.000000
     8  O    1.670000   2.566082   0.000000
     9  C    2.534929   2.969971   1.430000   0.000000
    10  C    3.919347   4.392598   2.453112   1.494252   0.000000
    11  O    4.462552   5.295556   2.918934   2.484097   1.439481
    12  C    5.816518   6.495418   4.284399   3.551859   2.161534
    13  C    5.829458   6.377998   4.543369   3.457946   2.351383
    14  N    7.176508   7.588800   5.941627   4.752666   3.648564
    15  C    4.811171   5.107839   3.649456   2.329440   1.526425
    16  O    4.363176   4.613771   3.669686   2.337371   2.435196
    17  C    3.087879   3.666499   2.516534   1.544719   2.282094
    18  O    1.469600   2.399847   2.566082   2.969971   4.335454
    19  C    2.877707   4.078604   3.436457   4.768564   5.720368
    20  C    4.126656   5.168252   4.697458   6.072228   6.964511
    21  H    4.995564   5.073068   6.008139   7.259334   8.389570
    22  H    2.847382   2.516116   4.042754   5.047719   6.323803
    23  H    2.689331   2.546414   2.027952   1.070000   2.137415
    24  H    4.406512   4.711877   2.872831   2.178387   1.070000
    25  H    6.586093   7.393493   5.059716   4.480764   3.163671
    26  H    6.197628   6.708646   4.604038   3.860459   2.367032
    27  H    5.722929   6.439349   4.580778   3.623807   2.817609
    28  H    7.847796   8.381569   6.565730   5.485866   4.321166
    29  H    7.301098   7.632239   6.243611   4.964720   4.099427
    30  H    5.384335   5.417003   4.271945   2.917679   2.154177
    31  H    2.797507   3.284142   2.853593   2.193429   3.271779
    32  H    3.487363   4.383288   2.775304   2.163914   2.513383
    33  H    3.028085   4.423436   3.262316   4.476893   5.286511
    34  H    4.982414   6.131720   5.384971   6.733042   7.495968
                   11         12         13         14         15
    11  O    0.000000
    12  C    1.476569   0.000000
    13  C    2.257548   1.501458   0.000000
    14  N    3.665228   2.553248   1.470000   0.000000
    15  C    2.371915   2.320643   1.516403   2.502089   0.000000
    16  O    3.229705   3.523959   2.462888   3.308885   1.460567
    17  C    2.855441   3.729095   3.127680   4.338715   2.261324
    18  O    4.736477   6.019027   5.756434   7.045485   4.876402
    19  C    5.581337   7.055216   7.470375   8.931404   6.887118
    20  C    6.750754   8.210420   8.731084  10.198764   8.191863
    21  H    8.717869  10.137867  10.548415  11.947113   9.582285
    22  H    6.944562   8.295359   8.481249   9.800004   7.343658
    23  H    3.399842   4.274443   4.056595   5.171911   2.671431
    24  H    1.990342   2.417746   2.958483   4.056536   2.201090
    25  H    2.141062   1.070000   2.153674   2.892787   3.302641
    26  H    2.120018   1.070000   2.150294   2.847107   2.609142
    27  H    2.418095   2.061800   1.070000   2.071164   2.132721
    28  H    4.028590   2.784968   2.034920   1.000000   3.356126
    29  H    4.284600   3.385990   2.034920   1.000000   2.720806
    30  H    3.208525   2.922604   2.194892   2.656180   1.070000
    31  H    3.861176   4.793795   4.129267   5.247104   3.225195
    32  H    2.492027   3.420599   2.955516   4.256713   2.617651
    33  H    4.943312   6.392318   6.799097   8.256335   6.390783
    34  H    7.088307   8.510014   9.098346  10.561931   8.720673
                   16         17         18         19         20
    16  O    0.000000
    17  C    1.463073   0.000000
    18  O    4.062147   2.724795   0.000000
    19  C    6.644613   5.211141   3.330370   0.000000
    20  C    7.995645   6.564384   4.600781   1.355200   0.000000
    21  H    9.331088   8.069511   5.870790   3.965200   3.490808
    22  H    6.998259   5.867474   3.880851   3.490808   3.965200
    23  H    2.579029   2.164268   3.272985   5.283234   6.551323
    24  H    3.320396   3.283745   5.088072   6.122252   7.280185
    25  H    4.386248   4.528270   6.715046   7.495775   8.579978
    26  H    4.013735   4.343925   6.597784   7.540340   8.661197
    27  H    2.504995   2.911739   5.418655   7.170997   8.429642
    28  H    4.132665   5.022578   7.671261   9.370775  10.599037
    29  H    3.106686   4.315537   7.019284   9.221006  10.526453
    30  H    2.067676   3.090875   5.578573   7.645245   8.937110
    31  H    2.116225   1.070000   2.049260   5.046425   6.388959
    32  H    2.097551   1.070000   2.994500   5.040804   6.361317
    33  H    6.160936   4.722283   3.189261   1.070000   2.105120
    34  H    8.564666   7.128586   5.310611   2.105120   1.070000
                   21         22         23         24         25
    21  H    0.000000
    22  H    2.610000   0.000000
    23  H    7.221091   4.820937   0.000000
    24  H    8.466194   6.464359   2.497504   0.000000
    25  H   10.768483   9.077044   5.280701   3.398772   0.000000
    26  H   10.330762   8.470583   4.391341   2.142731   1.730118
    27  H   10.489141   8.497379   4.368651   3.639877   2.400264
    28  H   12.562869  10.516013   6.013486   4.716868   2.738403
    29  H   12.197469   9.956384   5.291774   4.626830   3.779230
    30  H   10.027069   7.699664   2.893133   2.391523   3.917762
    31  H    7.726679   5.489461   2.526716   4.209485   5.562949
    32  H    8.311970   6.331747   3.044704   3.568749   4.018356
    33  H    5.035200   4.361590   5.173140   5.800202   6.741257
    34  H    4.361590   5.035200   7.322408   7.836746   8.754159
                   26         27         28         29         30
    26  H    0.000000
    27  H    2.982082   0.000000
    28  H    3.159547   2.346983   0.000000
    29  H    3.742083   2.358218   1.632993   0.000000
    30  H    2.839427   3.018249   3.614325   2.816246   0.000000
    31  H    5.408798   3.817256   5.936320   5.085901   3.930556
    32  H    4.235491   2.444434   4.755672   4.327365   3.625827
    33  H    6.984815   6.402975   8.620088   8.556370   7.244233
    34  H    9.015831   8.725659  10.871996  10.924504   9.529690
                   31         32         33         34
    31  H    0.000000
    32  H    1.735673   0.000000
    33  H    4.649278   4.360121   0.000000
    34  H    7.006402   6.779033   2.425200   0.000000
 Stoichiometry    C12H14BrNO5S
 Framework group  C1[X(C12H14BrNO5S)]
 Deg. of freedom    96
 Full point group                 C1      NOp   1
 Largest Abelian subgroup         C1      NOp   1
 Largest concise Abelian subgroup C1      NOp   1
                         Standard orientation:                         
 ---------------------------------------------------------------------
 Center     Atomic      Atomic             Coordinates (Angstroms)
 Number     Number       Type             X           Y           Z
 ---------------------------------------------------------------------
      1         35           0        6.048266   -0.846254   -0.022446
      2          6           0        4.239680   -0.232709    0.003645
      3          6           0        3.886801    0.866663   -0.705879
      4          6           0        2.428569    1.361354   -0.684842
      5          6           0        1.498206    0.697309    0.043193
      6         16           0       -0.187283    1.269095    0.067508
      7          8           0       -0.310261    2.467365   -0.774365
      8          8           0       -1.190319    0.070319   -0.520501
      9          6           0       -2.544391    0.529675   -0.500967
     10          6           0       -3.543227   -0.503175   -0.911257
     11          8           0       -3.435078   -1.775211   -0.246176
     12          6           0       -4.830915   -2.188313   -0.493646
     13          6           0       -5.526846   -1.065120    0.219439
     14          7           0       -6.994376   -1.001745    0.162528
     15          6           0       -4.837554    0.130756   -0.408442
     16          8           0       -4.517932    1.151512    0.586121
     17          6           0       -3.127238    0.822204    0.899345
     18          8           0       -0.573201    1.597824    1.446902
     19          6           0        1.899205   -0.551977    0.849470
     20          6           0        3.182449   -0.987305    0.830958
     21          1           0        4.621370    1.390960   -1.280700
     22          1           0        2.149953    2.229365   -1.245048
     23          1           0       -2.597862    1.402704   -1.117295
     24          1           0       -3.541038   -0.754198   -1.951393
     25          1           0       -5.070407   -3.147744   -0.084948
     26          1           0       -5.057911   -2.210348   -1.539059
     27          1           0       -5.235325   -1.156375    1.244909
     28          1           0       -7.379819   -1.829804    0.569653
     29          1           0       -7.313378   -0.201247    0.669915
     30          1           0       -5.373605    0.592366   -1.211228
     31          1           0       -2.621782    1.621545    1.399813
     32          1           0       -3.072157   -0.050663    1.515761
     33          1           0        1.164635   -1.076274    1.424291
     34          1           0        3.461066   -1.855316    1.391163
 ---------------------------------------------------------------------
 Rotational constants (GHZ):           0.7892374           0.0782771           0.0740067
 Leave Link  202 at Tue Jul 25 18:12:59 2023, MaxMem=   104857600 cpu:               0.0 elap:               0.0
 (Enter /private/chem/g16E03/g16/l301.exe)
 Standard basis: 6-31+G(d,p) (6D, 7F)
 Ernie: Thresh=  0.10000D-02 Tol=  0.10000D-05 Strict=F.
 There are   469 symmetry adapted cartesian basis functions of A   symmetry.
 There are   469 symmetry adapted basis functions of A   symmetry.
   469 basis functions,   817 primitive gaussians,   469 cartesian basis functions
    92 alpha electrons       92 beta electrons
       nuclear repulsion energy      2103.8834623132 Hartrees.
 IExCor= 4336 DFT=T Ex+Corr=M062X ExCW=0 ScaHFX=  0.540000
 ScaDFX=  1.000000  1.000000  1.000000  1.000000 ScalE2=  1.000000  1.000000
 IRadAn=      5 IRanWt=     -1 IRanGd=            0 ICorTp=0 IEmpDi=  4
 NAtoms=   34 NActive=   34 NUniq=   34 SFac= 1.00D+00 NAtFMM=   60 NAOKFM=F Big=F
 Integral buffers will be    131072 words long.
 Raffenetti 2 integral format.
 Two-electron integral symmetry is turned on.
 ------------------------------------------------------------------------------
 Polarizable Continuum Model (PCM)
 =================================
 Model                : PCM.
 Atomic radii         : SMD-Coulomb.
 Polarization charges : Total charges.
 Charge compensation  : None.
 Solution method      : On-the-fly selection.
 Cavity type          : VdW (van der Waals Surface) (Alpha=1.000).
 Cavity algorithm     : GePol (No added spheres)
                        Default sphere list used, NSphG=   34.
                        Lebedev-Laikov grids with approx.  5.0 points / Ang**2.
                        Smoothing algorithm: York/Karplus (Gamma=1.0000).
                        Polarization charges: spherical gaussians, with
                                              point-specific exponents (IZeta= 3).
                        Self-potential: point-specific (ISelfS= 7).
                        Self-field    : sphere-specific E.n sum rule (ISelfD= 2).
 1st derivatives      : Analytical E(r).r(x)/FMM algorithm (CHGder, D1EAlg=3).
                        Cavity 1st derivative terms included.
 Solvent              : Water, Eps=  78.355300 Eps(inf)=   1.777849
 ------------------------------------------------------------------------------
 GePol: Number of generator spheres                  =      34
 GePol: Total number of spheres                      =      34
 GePol: Number of exposed spheres                    =      34 (100.00%)
 GePol: Number of points                             =    2666
 GePol: Average weight of points                     =       0.13
 GePol: Minimum weight of points                     =   0.90D-09
 GePol: Maximum weight of points                     =    0.22025
 GePol: Number of points with low weight             =     145
 GePol: Fraction of low-weight points (<1% of avg)   =       5.44%
 GePol: Cavity surface area                          =    343.873 Ang**2
 GePol: Cavity volume                                =    354.895 Ang**3
 ------------------------------------------------------------------------------
 Atomic radii for non-electrostatic terms: SMD-CDS.
 ------------------------------------------------------------------------------
 PCM non-electrostatic energy =         0.0052539513 Hartrees.
 Nuclear repulsion after PCM non-electrostatic terms =     2103.8887162645 Hartrees.
 Leave Link  301 at Tue Jul 25 18:12:59 2023, MaxMem=   104857600 cpu:               0.1 elap:               0.1
 (Enter /private/chem/g16E03/g16/l302.exe)
 NPDir=0 NMtPBC=     1 NCelOv=     1 NCel=       1 NClECP=     1 NCelD=      1
         NCelK=      1 NCelE2=     1 NClLst=     1 CellRange=     0.0.
 One-electron integrals computed using PRISM.
 One-electron integral symmetry used in STVInt
 NBasis=   469 RedAO= T EigKep=  2.02D-06  NBF=   469
 NBsUse=   469 1.00D-06 EigRej= -1.00D+00 NBFU=   469
 Precomputing XC quadrature grid using
 IXCGrd= 4 IRadAn=           5 IRanWt=          -1 IRanGd=           0 AccXCQ= 0.00D+00.
 Generated NRdTot=       0 NPtTot=           0 NUsed=           0 NTot=          32
 NSgBfM=   452   452   452   452   452 MxSgAt=    34 MxSgA2=    34.
 Leave Link  302 at Tue Jul 25 18:13:01 2023, MaxMem=   104857600 cpu:               1.8 elap:               1.8
 (Enter /private/chem/g16E03/g16/l303.exe)
 DipDrv:  MaxL=1.
 Leave Link  303 at Tue Jul 25 18:13:01 2023, MaxMem=   104857600 cpu:               0.1 elap:               0.1
 (Enter /private/chem/g16E03/g16/l401.exe)
 ExpMin= 3.50D-02 ExpMax= 5.74D+05 ExpMxC= 5.74D+03 IAcc=3 IRadAn=         5 AccDes= 0.00D+00
 Harris functional with IExCor= 1009 and IRadAn=       5 diagonalized for initial guess.
 HarFok:  IExCor= 1009 AccDes= 0.00D+00 IRadAn=         5 IDoV= 1 UseB2=F ITyADJ=14
 ICtDFT=  3500011 ScaDFX=  1.000000  1.000000  1.000000  1.000000
 FoFCou: FMM=F IPFlag=           0 FMFlag=      100000 FMFlg1=           0
         NFxFlg=           0 DoJE=T BraDBF=F KetDBF=T FulRan=T
         wScrn=  0.000000 ICntrl=       500 IOpCl=  0 I1Cent=   200000004 NGrid=           0
         NMat0=    1 NMatS0=      1 NMatT0=    0 NMatD0=    1 NMtDS0=    0 NMtDT0=    0
 Petite list used in FoFCou.
 Harris En= -3865.01468766909    
 JPrj=0 DoOrth=F DoCkMO=F.
 Leave Link  401 at Tue Jul 25 18:13:31 2023, MaxMem=   104857600 cpu:              30.2 elap:              30.3
 (Enter /private/chem/g16E03/g16/l502.exe)
 Integral symmetry usage will be decided dynamically.
 Closed shell SCF:
 Using DIIS extrapolation, IDIIS=  1040.
 NGot=   104857600 LenX=   104410204 LenY=   104189774
 Requested convergence on RMS density matrix=1.00D-08 within 128 cycles.
 Requested convergence on MAX density matrix=1.00D-06.
 Requested convergence on             energy=1.00D-06.
 No special actions if energy rises.
 Fock matrices will be formed incrementally for  20 cycles.

 Cycle   1  Pass 1  IDiag  1:
 FoFJK:  IHMeth= 1 ICntrl=       0 DoSepK=F KAlg= 0 I1Cent=           0 FoldK=F
 IRaf= 760000000 NMat=       1 IRICut=       1 DoRegI=T DoRafI=F ISym2E= 0 IDoP0=0 IntGTp=1.
 FoFCou: FMM=F IPFlag=           0 FMFlag=      100000 FMFlg1=           0
         NFxFlg=           0 DoJE=F BraDBF=F KetDBF=F FulRan=T
         wScrn=  0.000000 ICntrl=         0 IOpCl=  0 I1Cent=           0 NGrid=           0
         NMat0=    1 NMatS0=      1 NMatT0=    0 NMatD0=    1 NMtDS0=    0 NMtDT0=    0
 Symmetry not used in FoFCou.
 Inv3:  Mode=1 IEnd=    21322668.
 Iteration    1 A*A^-1 deviation from unit magnitude is 6.22D-15 for   2651.
 Iteration    1 A*A^-1 deviation from orthogonality  is 2.86D-15 for   1720   1159.
 Iteration    1 A^-1*A deviation from unit magnitude is 6.22D-15 for   2651.
 Iteration    1 A^-1*A deviation from orthogonality  is 1.91D-15 for   1916   1081.
 E= -3865.57301130137    
 DIIS: error= 5.46D-02 at cycle   1 NSaved=   1.
 NSaved= 1 IEnMin= 1 EnMin= -3865.57301130137     IErMin= 1 ErrMin= 5.46D-02
 ErrMax= 5.46D-02  0.00D+00 EMaxC= 1.00D-01 BMatC= 8.50D-01 BMatP= 8.50D-01
 IDIUse=3 WtCom= 4.54D-01 WtEn= 5.46D-01
 Coeff-Com:  0.100D+01
 Coeff-En:   0.100D+01
 Coeff:      0.100D+01
 Gap=     0.300 Goal=   None    Shift=    0.000
 GapD=    0.300 DampG=1.000 DampE=0.500 DampFc=0.5000 IDamp=-1.
 Damping current iteration by 5.00D-01
 RMSDP=3.90D-02 MaxDP=5.60D+00              OVMax= 1.58D-01

 Cycle   2  Pass 1  IDiag  1:
 RMSU=  1.94D-02    CP:  1.02D+00
 E= -3865.78443803347     Delta-E=       -0.211426732099 Rises=F Damp=T
 DIIS: error= 2.56D-02 at cycle   2 NSaved=   2.
 NSaved= 2 IEnMin= 2 EnMin= -3865.78443803347     IErMin= 2 ErrMin= 2.56D-02
 ErrMax= 2.56D-02  0.00D+00 EMaxC= 1.00D-01 BMatC= 1.04D-01 BMatP= 8.50D-01
 IDIUse=3 WtCom= 7.44D-01 WtEn= 2.56D-01
 Coeff-Com: -0.372D-01 0.104D+01
 Coeff-En:   0.110D+00 0.890D+00
 Coeff:      0.567D-03 0.999D+00
 Gap=     0.323 Goal=   None    Shift=    0.000
 RMSDP=2.66D-02 MaxDP=5.40D+00 DE=-2.11D-01 OVMax= 1.42D-01

 Cycle   3  Pass 1  IDiag  1:
 RMSU=  1.04D-02    CP:  7.59D-01  7.02D-01
 E= -3866.03994754973     Delta-E=       -0.255509516258 Rises=F Damp=F
 DIIS: error= 4.64D-03 at cycle   3 NSaved=   3.
 NSaved= 3 IEnMin= 3 EnMin= -3866.03994754973     IErMin= 3 ErrMin= 4.64D-03
 ErrMax= 4.64D-03  0.00D+00 EMaxC= 1.00D-01 BMatC= 4.02D-02 BMatP= 1.04D-01
 IDIUse=3 WtCom= 9.54D-01 WtEn= 4.64D-02
 Coeff-Com: -0.122D+00 0.415D+00 0.707D+00
 Coeff-En:   0.000D+00 0.000D+00 0.100D+01
 Coeff:     -0.116D+00 0.395D+00 0.720D+00
 Gap=     0.272 Goal=   None    Shift=    0.000
 RMSDP=4.43D-03 MaxDP=7.55D-01 DE=-2.56D-01 OVMax= 3.51D-02

 Cycle   4  Pass 1  IDiag  1:
 RMSU=  1.96D-03    CP:  7.82D-01  8.71D-01  9.04D-01
 E= -3866.06650312848     Delta-E=       -0.026555578752 Rises=F Damp=F
 DIIS: error= 1.92D-03 at cycle   4 NSaved=   4.
 NSaved= 4 IEnMin= 4 EnMin= -3866.06650312848     IErMin= 4 ErrMin= 1.92D-03
 ErrMax= 1.92D-03  0.00D+00 EMaxC= 1.00D-01 BMatC= 6.09D-03 BMatP= 4.02D-02
 IDIUse=3 WtCom= 9.81D-01 WtEn= 1.92D-02
 Coeff-Com: -0.576D-01 0.139D+00 0.366D+00 0.553D+00
 Coeff-En:   0.000D+00 0.000D+00 0.775D-01 0.923D+00
 Coeff:     -0.565D-01 0.136D+00 0.360D+00 0.560D+00
 Gap=     0.269 Goal=   None    Shift=    0.000
 RMSDP=1.18D-03 MaxDP=1.36D-01 DE=-2.66D-02 OVMax= 1.46D-02

 Cycle   5  Pass 1  IDiag  1:
 RMSU=  6.00D-04    CP:  7.79D-01  8.34D-01  9.21D-01  6.75D-01
 E= -3866.07170049149     Delta-E=       -0.005197363010 Rises=F Damp=F
 DIIS: error= 3.02D-04 at cycle   5 NSaved=   5.
 NSaved= 5 IEnMin= 5 EnMin= -3866.07170049149     IErMin= 5 ErrMin= 3.02D-04
 ErrMax= 3.02D-04  0.00D+00 EMaxC= 1.00D-01 BMatC= 1.63D-04 BMatP= 6.09D-03
 IDIUse=3 WtCom= 9.97D-01 WtEn= 3.02D-03
 Coeff-Com: -0.155D-01 0.322D-01 0.904D-01 0.208D+00 0.685D+00
 Coeff-En:   0.000D+00 0.000D+00 0.000D+00 0.000D+00 0.100D+01
 Coeff:     -0.155D-01 0.321D-01 0.901D-01 0.207D+00 0.686D+00
 Gap=     0.268 Goal=   None    Shift=    0.000
 RMSDP=2.95D-04 MaxDP=4.86D-02 DE=-5.20D-03 OVMax= 2.16D-03

 Cycle   6  Pass 1  IDiag  1:
 RMSU=  1.62D-04    CP:  7.76D-01  8.29D-01  9.24D-01  7.03D-01  8.87D-01
 E= -3866.07182479777     Delta-E=       -0.000124306284 Rises=F Damp=F
 DIIS: error= 8.92D-05 at cycle   6 NSaved=   6.
 NSaved= 6 IEnMin= 6 EnMin= -3866.07182479777     IErMin= 6 ErrMin= 8.92D-05
 ErrMax= 8.92D-05  0.00D+00 EMaxC= 1.00D-01 BMatC= 2.27D-05 BMatP= 1.63D-04
 IDIUse=1 WtCom= 1.00D+00 WtEn= 0.00D+00
 Coeff-Com: -0.141D-02 0.129D-02 0.156D-02 0.362D-01 0.315D+00 0.647D+00
 Coeff:     -0.141D-02 0.129D-02 0.156D-02 0.362D-01 0.315D+00 0.647D+00
 Gap=     0.268 Goal=   None    Shift=    0.000
 RMSDP=1.18D-04 MaxDP=2.07D-02 DE=-1.24D-04 OVMax= 9.15D-04

 Cycle   7  Pass 1  IDiag  1:
 RMSU=  5.96D-05    CP:  7.75D-01  8.27D-01  9.26D-01  7.13D-01  9.36D-01
                    CP:  9.05D-01
 E= -3866.07184518561     Delta-E=       -0.000020387834 Rises=F Damp=F
 DIIS: error= 2.08D-05 at cycle   7 NSaved=   7.
 NSaved= 7 IEnMin= 7 EnMin= -3866.07184518561     IErMin= 7 ErrMin= 2.08D-05
 ErrMax= 2.08D-05  0.00D+00 EMaxC= 1.00D-01 BMatC= 1.18D-06 BMatP= 2.27D-05
 IDIUse=1 WtCom= 1.00D+00 WtEn= 0.00D+00
 Coeff-Com:  0.134D-02-0.336D-02-0.111D-01-0.134D-01 0.204D-01 0.188D+00
 Coeff-Com:  0.818D+00
 Coeff:      0.134D-02-0.336D-02-0.111D-01-0.134D-01 0.204D-01 0.188D+00
 Coeff:      0.818D+00
 Gap=     0.268 Goal=   None    Shift=    0.000
 RMSDP=3.84D-05 MaxDP=5.48D-03 DE=-2.04D-05 OVMax= 3.10D-04

 Cycle   8  Pass 1  IDiag  1:
 RMSU=  1.89D-05    CP:  7.75D-01  8.26D-01  9.27D-01  7.14D-01  9.60D-01
                    CP:  9.98D-01  9.89D-01
 E= -3866.07184660924     Delta-E=       -0.000001423638 Rises=F Damp=F
 DIIS: error= 9.55D-06 at cycle   8 NSaved=   8.
 NSaved= 8 IEnMin= 8 EnMin= -3866.07184660924     IErMin= 8 ErrMin= 9.55D-06
 ErrMax= 9.55D-06  0.00D+00 EMaxC= 1.00D-01 BMatC= 1.72D-07 BMatP= 1.18D-06
 IDIUse=1 WtCom= 1.00D+00 WtEn= 0.00D+00
 Coeff-Com:  0.567D-03-0.122D-02-0.406D-02-0.844D-02-0.227D-01 0.106D-01
 Coeff-Com:  0.322D+00 0.703D+00
 Coeff:      0.567D-03-0.122D-02-0.406D-02-0.844D-02-0.227D-01 0.106D-01
 Coeff:      0.322D+00 0.703D+00
 Gap=     0.268 Goal=   None    Shift=    0.000
 RMSDP=1.89D-05 MaxDP=3.57D-03 DE=-1.42D-06 OVMax= 1.79D-04

 Cycle   9  Pass 1  IDiag  1:
 RMSU=  4.95D-06    CP:  7.75D-01  8.25D-01  9.27D-01  7.15D-01  9.67D-01
                    CP:  1.01D+00  1.03D+00  9.08D-01
 E= -3866.07184682084     Delta-E=       -0.000000211592 Rises=F Damp=F
 DIIS: error= 2.84D-06 at cycle   9 NSaved=   9.
 NSaved= 9 IEnMin= 9 EnMin= -3866.07184682084     IErMin= 9 ErrMin= 2.84D-06
 ErrMax= 2.84D-06  0.00D+00 EMaxC= 1.00D-01 BMatC= 1.35D-08 BMatP= 1.72D-07
 IDIUse=1 WtCom= 1.00D+00 WtEn= 0.00D+00
 Coeff-Com:  0.280D-04-0.134D-04-0.744D-04-0.132D-02-0.997D-02-0.156D-01
 Coeff-Com:  0.139D-01 0.207D+00 0.806D+00
 Coeff:      0.280D-04-0.134D-04-0.744D-04-0.132D-02-0.997D-02-0.156D-01
 Coeff:      0.139D-01 0.207D+00 0.806D+00
 Gap=     0.268 Goal=   None    Shift=    0.000
 RMSDP=3.86D-06 MaxDP=6.15D-04 DE=-2.12D-07 OVMax= 6.25D-05

 Cycle  10  Pass 1  IDiag  1:
 RMSU=  1.62D-06    CP:  7.75D-01  8.25D-01  9.27D-01  7.15D-01  9.68D-01
                    CP:  1.01D+00  1.05D+00  9.42D-01  1.10D+00
 E= -3866.07184684129     Delta-E=       -0.000000020455 Rises=F Damp=F
 DIIS: error= 1.70D-06 at cycle  10 NSaved=  10.
 NSaved=10 IEnMin=10 EnMin= -3866.07184684129     IErMin=10 ErrMin= 1.70D-06
 ErrMax= 1.70D-06  0.00D+00 EMaxC= 1.00D-01 BMatC= 2.13D-09 BMatP= 1.35D-08
 IDIUse=1 WtCom= 1.00D+00 WtEn= 0.00D+00
 Coeff-Com: -0.518D-04 0.128D-03 0.414D-03 0.437D-03-0.138D-02-0.692D-02
 Coeff-Com: -0.319D-01-0.454D-02 0.306D+00 0.737D+00
 Coeff:     -0.518D-04 0.128D-03 0.414D-03 0.437D-03-0.138D-02-0.692D-02
 Coeff:     -0.319D-01-0.454D-02 0.306D+00 0.737D+00
 Gap=     0.268 Goal=   None    Shift=    0.000
 RMSDP=1.04D-06 MaxDP=8.90D-05 DE=-2.05D-08 OVMax= 3.96D-05

 Cycle  11  Pass 1  IDiag  1:
 RMSU=  4.79D-07    CP:  7.75D-01  8.25D-01  9.27D-01  7.15D-01  9.68D-01
                    CP:  1.02D+00  1.05D+00  9.69D-01  1.16D+00  1.00D+00
 E= -3866.07184684484     Delta-E=       -0.000000003552 Rises=F Damp=F
 DIIS: error= 4.65D-07 at cycle  11 NSaved=  11.
 NSaved=11 IEnMin=11 EnMin= -3866.07184684484     IErMin=11 ErrMin= 4.65D-07
 ErrMax= 4.65D-07  0.00D+00 EMaxC= 1.00D-01 BMatC= 1.60D-10 BMatP= 2.13D-09
 IDIUse=1 WtCom= 1.00D+00 WtEn= 0.00D+00
 Coeff-Com: -0.112D-04 0.232D-04 0.818D-04 0.205D-03 0.621D-03 0.208D-03
 Coeff-Com: -0.744D-02-0.215D-01-0.310D-01 0.158D+00 0.901D+00
 Coeff:     -0.112D-04 0.232D-04 0.818D-04 0.205D-03 0.621D-03 0.208D-03
 Coeff:     -0.744D-02-0.215D-01-0.310D-01 0.158D+00 0.901D+00
 Gap=     0.268 Goal=   None    Shift=    0.000
 RMSDP=3.08D-07 MaxDP=3.83D-05 DE=-3.55D-09 OVMax= 1.30D-05

 Cycle  12  Pass 1  IDiag  1:
 RMSU=  2.08D-07    CP:  7.75D-01  8.25D-01  9.27D-01  7.15D-01  9.68D-01
                    CP:  1.02D+00  1.05D+00  9.70D-01  1.18D+00  1.07D+00
                    CP:  9.96D-01
 E= -3866.07184684542     Delta-E=       -0.000000000577 Rises=F Damp=F
 DIIS: error= 2.54D-07 at cycle  12 NSaved=  12.
 NSaved=12 IEnMin=12 EnMin= -3866.07184684542     IErMin=12 ErrMin= 2.54D-07
 ErrMax= 2.54D-07  0.00D+00 EMaxC= 1.00D-01 BMatC= 3.79D-11 BMatP= 1.60D-10
 IDIUse=1 WtCom= 1.00D+00 WtEn= 0.00D+00
 Coeff-Com: -0.293D-06-0.152D-05-0.614D-06 0.511D-04 0.424D-03 0.822D-03
 Coeff-Com:  0.488D-04-0.844D-02-0.448D-01-0.108D-01 0.393D+00 0.670D+00
 Coeff:     -0.293D-06-0.152D-05-0.614D-06 0.511D-04 0.424D-03 0.822D-03
 Coeff:      0.488D-04-0.844D-02-0.448D-01-0.108D-01 0.393D+00 0.670D+00
 Gap=     0.268 Goal=   None    Shift=    0.000
 RMSDP=1.30D-07 MaxDP=2.10D-05 DE=-5.77D-10 OVMax= 5.27D-06

 Cycle  13  Pass 1  IDiag  1:
 RMSU=  7.70D-08    CP:  7.75D-01  8.25D-01  9.27D-01  7.15D-01  9.68D-01
                    CP:  1.02D+00  1.05D+00  9.70D-01  1.18D+00  1.09D+00
                    CP:  1.06D+00  8.39D-01
 E= -3866.07184684551     Delta-E=       -0.000000000089 Rises=F Damp=F
 DIIS: error= 5.73D-08 at cycle  13 NSaved=  13.
 NSaved=13 IEnMin=13 EnMin= -3866.07184684551     IErMin=13 ErrMin= 5.73D-08
 ErrMax= 5.73D-08  0.00D+00 EMaxC= 1.00D-01 BMatC= 5.30D-12 BMatP= 3.79D-11
 IDIUse=1 WtCom= 1.00D+00 WtEn= 0.00D+00
 Coeff-Com:  0.198D-05-0.490D-05-0.140D-04-0.170D-04 0.625D-04 0.295D-03
 Coeff-Com:  0.130D-02 0.206D-03-0.133D-01-0.340D-01 0.141D-01 0.268D+00
 Coeff-Com:  0.763D+00
 Coeff:      0.198D-05-0.490D-05-0.140D-04-0.170D-04 0.625D-04 0.295D-03
 Coeff:      0.130D-02 0.206D-03-0.133D-01-0.340D-01 0.141D-01 0.268D+00
 Coeff:      0.763D+00
 Gap=     0.268 Goal=   None    Shift=    0.000
 RMSDP=6.47D-08 MaxDP=9.48D-06 DE=-8.91D-11 OVMax= 2.02D-06

 Cycle  14  Pass 1  IDiag  1:
 RMSU=  2.88D-08    CP:  7.75D-01  8.25D-01  9.27D-01  7.15D-01  9.68D-01
                    CP:  1.02D+00  1.05D+00  9.70D-01  1.18D+00  1.09D+00
                    CP:  1.09D+00  9.62D-01  8.95D-01
 E= -3866.07184684545     Delta-E=        0.000000000065 Rises=F Damp=F
 DIIS: error= 2.84D-08 at cycle  14 NSaved=  14.
 NSaved=14 IEnMin=13 EnMin= -3866.07184684551     IErMin=14 ErrMin= 2.84D-08
 ErrMax= 2.84D-08  0.00D+00 EMaxC= 1.00D-01 BMatC= 9.39D-13 BMatP= 5.30D-12
 IDIUse=1 WtCom= 1.00D+00 WtEn= 0.00D+00
 Coeff-Com:  0.106D-05-0.220D-05-0.686D-05-0.176D-04-0.393D-04 0.788D-05
 Coeff-Com:  0.641D-03 0.147D-02 0.853D-03-0.148D-01-0.540D-01 0.179D-01
 Coeff-Com:  0.342D+00 0.706D+00
 Coeff:      0.106D-05-0.220D-05-0.686D-05-0.176D-04-0.393D-04 0.788D-05
 Coeff:      0.641D-03 0.147D-02 0.853D-03-0.148D-01-0.540D-01 0.179D-01
 Coeff:      0.342D+00 0.706D+00
 Gap=     0.268 Goal=   None    Shift=    0.000
 RMSDP=2.58D-08 MaxDP=3.90D-06 DE= 6.46D-11 OVMax= 7.07D-07

 Cycle  15  Pass 1  IDiag  1:
 RMSU=  1.12D-08    CP:  7.75D-01  8.25D-01  9.27D-01  7.15D-01  9.68D-01
                    CP:  1.02D+00  1.05D+00  9.70D-01  1.18D+00  1.09D+00
                    CP:  1.10D+00  9.64D-01  1.02D+00  8.35D-01
 E= -3866.07184684537     Delta-E=        0.000000000075 Rises=F Damp=F
 DIIS: error= 1.40D-08 at cycle  15 NSaved=  15.
 NSaved=15 IEnMin=13 EnMin= -3866.07184684551     IErMin=15 ErrMin= 1.40D-08
 ErrMax= 1.40D-08  0.00D+00 EMaxC= 1.00D-01 BMatC= 8.47D-14 BMatP= 9.39D-13
 IDIUse=1 WtCom= 1.00D+00 WtEn= 0.00D+00
 Coeff-Com:  0.770D-08 0.750D-07 0.602D-07-0.278D-05-0.189D-04-0.372D-04
 Coeff-Com:  0.253D-04 0.424D-03 0.205D-02-0.773D-04-0.181D-01-0.298D-01
 Coeff-Com:  0.491D-02 0.237D+00 0.804D+00
 Coeff:      0.770D-08 0.750D-07 0.602D-07-0.278D-05-0.189D-04-0.372D-04
 Coeff:      0.253D-04 0.424D-03 0.205D-02-0.773D-04-0.181D-01-0.298D-01
 Coeff:      0.491D-02 0.237D+00 0.804D+00
 Gap=     0.268 Goal=   None    Shift=    0.000
 RMSDP=6.72D-09 MaxDP=6.06D-07 DE= 7.46D-11 OVMax= 3.22D-07

 Error on total polarization charges =  0.04634
 SCF Done:  E(RM062X) =  -3866.07184685     A.U. after   15 cycles
            NFock= 15  Conv=0.67D-08     -V/T= 2.0070
 KE= 3.839277207624D+03 PE=-1.337302001351D+04 EE= 3.563782242774D+03
 SMD-CDS (non-electrostatic) energy       (kcal/mol) =       3.30
 (included in total energy above)
 Leave Link  502 at Tue Jul 25 18:51:56 2023, MaxMem=   104857600 cpu:            2297.1 elap:            2304.7
 (Enter /private/chem/g16E03/g16/l601.exe)
 Copying SCF densities to generalized density rwf, IOpCl= 0 IROHF=0.

 **********************************************************************

            Population analysis using the SCF density.

 **********************************************************************

 Orbital symmetries:
       Occupied  (A) (A) (A) (A) (A) (A) (A) (A) (A) (A) (A) (A)
                 (A) (A) (A) (A) (A) (A) (A) (A) (A) (A) (A) (A)
                 (A) (A) (A) (A) (A) (A) (A) (A) (A) (A) (A) (A)
                 (A) (A) (A) (A) (A) (A) (A) (A) (A) (A) (A) (A)
                 (A) (A) (A) (A) (A) (A) (A) (A) (A) (A) (A) (A)
                 (A) (A) (A) (A) (A) (A) (A) (A) (A) (A) (A) (A)
                 (A) (A) (A) (A) (A) (A) (A) (A) (A) (A) (A) (A)
                 (A) (A) (A) (A) (A) (A) (A) (A)
       Virtual   (A) (A) (A) (A) (A) (A) (A) (A) (A) (A) (A) (A)
                 (A) (A) (A) (A) (A) (A) (A) (A) (A) (A) (A) (A)
                 (A) (A) (A) (A) (A) (A) (A) (A) (A) (A) (A) (A)
                 (A) (A) (A) (A) (A) (A) (A) (A) (A) (A) (A) (A)
                 (A) (A) (A) (A) (A) (A) (A) (A) (A) (A) (A) (A)
                 (A) (A) (A) (A) (A) (A) (A) (A) (A) (A) (A) (A)
                 (A) (A) (A) (A) (A) (A) (A) (A) (A) (A) (A) (A)
                 (A) (A) (A) (A) (A) (A) (A) (A) (A) (A) (A) (A)
                 (A) (A) (A) (A) (A) (A) (A) (A) (A) (A) (A) (A)
                 (A) (A) (A) (A) (A) (A) (A) (A) (A) (A) (A) (A)
                 (A) (A) (A) (A) (A) (A) (A) (A) (A) (A) (A) (A)
                 (A) (A) (A) (A) (A) (A) (A) (A) (A) (A) (A) (A)
                 (A) (A) (A) (A) (A) (A) (A) (A) (A) (A) (A) (A)
                 (A) (A) (A) (A) (A) (A) (A) (A) (A) (A) (A) (A)
                 (A) (A) (A) (A) (A) (A) (A) (A) (A) (A) (A) (A)
                 (A) (A) (A) (A) (A) (A) (A) (A) (A) (A) (A) (A)
                 (A) (A) (A) (A) (A) (A) (A) (A) (A) (A) (A) (A)
                 (A) (A) (A) (A) (A) (A) (A) (A) (A) (A) (A) (A)
                 (A) (A) (A) (A) (A) (A) (A) (A) (A) (A) (A) (A)
                 (A) (A) (A) (A) (A) (A) (A) (A) (A) (A) (A) (A)
                 (A) (A) (A) (A) (A) (A) (A) (A) (A) (A) (A) (A)
                 (A) (A) (A) (A) (A) (A) (A) (A) (A) (A) (A) (A)
                 (A) (A) (A) (A) (A) (A) (A) (A) (A) (A) (A) (A)
                 (A) (A) (A) (A) (A) (A) (A) (A) (A) (A) (A) (A)
                 (A) (A) (A) (A) (A) (A) (A) (A) (A) (A) (A) (A)
                 (A) (A) (A) (A) (A) (A) (A) (A) (A) (A) (A) (A)
                 (A) (A) (A) (A) (A) (A) (A) (A) (A) (A) (A) (A)
                 (A) (A) (A) (A) (A) (A) (A) (A) (A) (A) (A) (A)
                 (A) (A) (A) (A) (A) (A) (A) (A) (A) (A) (A) (A)
                 (A) (A) (A) (A) (A) (A) (A) (A) (A) (A) (A) (A)
                 (A) (A) (A) (A) (A) (A) (A) (A) (A) (A) (A) (A)
                 (A) (A) (A) (A) (A)
 The electronic state is 1-A.
 Alpha  occ. eigenvalues -- -485.50199 -90.20885 -62.78242 -57.31330 -57.31059
 Alpha  occ. eigenvalues --  -57.31026 -19.73390 -19.67163 -19.67027 -19.66904
 Alpha  occ. eigenvalues --  -19.66785 -14.74282 -10.64922 -10.63417 -10.62780
 Alpha  occ. eigenvalues --  -10.61362 -10.60951 -10.60149 -10.60098 -10.59771
 Alpha  occ. eigenvalues --  -10.59665 -10.59345 -10.59196 -10.57229  -8.95237
 Alpha  occ. eigenvalues --   -8.51718  -6.90631  -6.89590  -6.89553  -6.43958
 Alpha  occ. eigenvalues --   -6.43830  -6.43759  -2.93477  -2.93116  -2.93087
 Alpha  occ. eigenvalues --   -2.92161  -2.92161  -1.29147  -1.20023  -1.18255
 Alpha  occ. eigenvalues --   -1.15658  -1.14477  -0.99564  -0.98817  -0.93170
 Alpha  occ. eigenvalues --   -0.90596  -0.87532  -0.86738  -0.85063  -0.81620
 Alpha  occ. eigenvalues --   -0.78694  -0.72909  -0.71573  -0.70139  -0.68528
 Alpha  occ. eigenvalues --   -0.66676  -0.64509  -0.62872  -0.61552  -0.58877
 Alpha  occ. eigenvalues --   -0.58020  -0.57088  -0.56293  -0.56069  -0.55069
 Alpha  occ. eigenvalues --   -0.54511  -0.53920  -0.52410  -0.51606  -0.50927
 Alpha  occ. eigenvalues --   -0.49968  -0.48243  -0.47166  -0.46337  -0.45910
 Alpha  occ. eigenvalues --   -0.45607  -0.44397  -0.43594  -0.43076  -0.42261
 Alpha  occ. eigenvalues --   -0.42197  -0.41444  -0.41355  -0.39861  -0.38870
 Alpha  occ. eigenvalues --   -0.37755  -0.36339  -0.35503  -0.34268  -0.33865
 Alpha  occ. eigenvalues --   -0.32119  -0.31086
 Alpha virt. eigenvalues --   -0.04295  -0.01264   0.00459   0.00865   0.01953
 Alpha virt. eigenvalues --    0.02391   0.02511   0.03177   0.03552   0.03778
 Alpha virt. eigenvalues --    0.04462   0.04598   0.05195   0.05293   0.05560
 Alpha virt. eigenvalues --    0.06228   0.06331   0.06880   0.07205   0.07821
 Alpha virt. eigenvalues --    0.08275   0.08632   0.09121   0.09591   0.09854
 Alpha virt. eigenvalues --    0.10033   0.10999   0.11128   0.11288   0.11514
 Alpha virt. eigenvalues --    0.11816   0.12566   0.12801   0.13076   0.13337
 Alpha virt. eigenvalues --    0.13799   0.14349   0.14729   0.14933   0.15178
 Alpha virt. eigenvalues --    0.15928   0.16373   0.16495   0.16891   0.17033
 Alpha virt. eigenvalues --    0.17424   0.17963   0.18360   0.18852   0.19128
 Alpha virt. eigenvalues --    0.19509   0.19945   0.20163   0.20346   0.20651
 Alpha virt. eigenvalues --    0.20991   0.21354   0.21711   0.22405   0.22528
 Alpha virt. eigenvalues --    0.22673   0.23126   0.23496   0.23803   0.24168
 Alpha virt. eigenvalues --    0.24704   0.25547   0.26143   0.26183   0.26570
 Alpha virt. eigenvalues --    0.26729   0.27544   0.27643   0.27665   0.27880
 Alpha virt. eigenvalues --    0.28583   0.28904   0.29599   0.29897   0.30026
 Alpha virt. eigenvalues --    0.30694   0.31511   0.31677   0.31865   0.31996
 Alpha virt. eigenvalues --    0.32690   0.33001   0.33240   0.33285   0.33881
 Alpha virt. eigenvalues --    0.34201   0.34447   0.35632   0.36404   0.36575
 Alpha virt. eigenvalues --    0.37102   0.37400   0.37585   0.38356   0.38447
 Alpha virt. eigenvalues --    0.38987   0.39668   0.40050   0.41120   0.41795
 Alpha virt. eigenvalues --    0.42434   0.43032   0.43855   0.44271   0.45366
 Alpha virt. eigenvalues --    0.45657   0.46192   0.46976   0.48943   0.50135
 Alpha virt. eigenvalues --    0.50661   0.50922   0.51806   0.52100   0.52280
 Alpha virt. eigenvalues --    0.54182   0.55620   0.60316   0.61541   0.62457
 Alpha virt. eigenvalues --    0.63435   0.64285   0.65944   0.66868   0.67271
 Alpha virt. eigenvalues --    0.67647   0.68151   0.69620   0.71803   0.72064
 Alpha virt. eigenvalues --    0.73118   0.75105   0.75304   0.76740   0.76873
 Alpha virt. eigenvalues --    0.78228   0.78549   0.79923   0.80411   0.80646
 Alpha virt. eigenvalues --    0.81318   0.81806   0.82511   0.82790   0.84435
 Alpha virt. eigenvalues --    0.85203   0.86011   0.87190   0.87876   0.89247
 Alpha virt. eigenvalues --    0.90443   0.91966   0.93532   0.95623   0.97223
 Alpha virt. eigenvalues --    0.98447   0.99438   0.99701   1.00312   1.00583
 Alpha virt. eigenvalues --    1.01641   1.02598   1.03999   1.04775   1.05252
 Alpha virt. eigenvalues --    1.05918   1.06812   1.08059   1.09079   1.09300
 Alpha virt. eigenvalues --    1.10155   1.11399   1.11489   1.11959   1.13072
 Alpha virt. eigenvalues --    1.14559   1.15842   1.16882   1.17339   1.17747
 Alpha virt. eigenvalues --    1.19787   1.20382   1.21483   1.23046   1.24287
 Alpha virt. eigenvalues --    1.25860   1.27950   1.28339   1.29528   1.31352
 Alpha virt. eigenvalues --    1.32615   1.33450   1.33890   1.35260   1.35900
 Alpha virt. eigenvalues --    1.37343   1.37694   1.38100   1.39931   1.40659
 Alpha virt. eigenvalues --    1.41633   1.42369   1.42834   1.42919   1.43990
 Alpha virt. eigenvalues --    1.44116   1.44410   1.46362   1.46987   1.47614
 Alpha virt. eigenvalues --    1.49413   1.50602   1.51956   1.52318   1.54260
 Alpha virt. eigenvalues --    1.56373   1.56593   1.59413   1.62021   1.63615
 Alpha virt. eigenvalues --    1.64400   1.66225   1.68154   1.70364   1.70718
 Alpha virt. eigenvalues --    1.73506   1.75235   1.77323   1.79636   1.80510
 Alpha virt. eigenvalues --    1.81367   1.82554   1.84268   1.85295   1.85638
 Alpha virt. eigenvalues --    1.87436   1.87735   1.88302   1.89587   1.91329
 Alpha virt. eigenvalues --    1.91674   1.92402   1.93268   1.93826   1.94235
 Alpha virt. eigenvalues --    1.94675   1.95019   1.95724   1.96535   1.98399
 Alpha virt. eigenvalues --    1.98994   1.99443   2.00961   2.01537   2.03394
 Alpha virt. eigenvalues --    2.04877   2.05231   2.07424   2.07989   2.08811
 Alpha virt. eigenvalues --    2.10777   2.12127   2.13005   2.13623   2.14124
 Alpha virt. eigenvalues --    2.15414   2.16163   2.20151   2.21441   2.21728
 Alpha virt. eigenvalues --    2.23525   2.24663   2.25796   2.26368   2.27441
 Alpha virt. eigenvalues --    2.28120   2.28302   2.33095   2.33644   2.35092
 Alpha virt. eigenvalues --    2.35372   2.38447   2.39489   2.41526   2.43431
 Alpha virt. eigenvalues --    2.44044   2.44510   2.45048   2.46180   2.46670
 Alpha virt. eigenvalues --    2.48828   2.49664   2.51483   2.53326   2.53564
 Alpha virt. eigenvalues --    2.54366   2.56182   2.57163   2.58125   2.59265
 Alpha virt. eigenvalues --    2.59973   2.61684   2.66509   2.67013   2.67360
 Alpha virt. eigenvalues --    2.67990   2.69457   2.70503   2.71809   2.72283
 Alpha virt. eigenvalues --    2.73183   2.74607   2.75724   2.78160   2.79294
 Alpha virt. eigenvalues --    2.81053   2.83944   2.84684   2.87792   2.89763
 Alpha virt. eigenvalues --    2.92317   2.93968   2.94752   2.96088   2.97066
 Alpha virt. eigenvalues --    2.99551   3.00434   3.00845   3.02281   3.04110
 Alpha virt. eigenvalues --    3.06368   3.07241   3.09722   3.10917   3.15253
 Alpha virt. eigenvalues --    3.20010   3.27639   3.30648   3.36364   3.36543
 Alpha virt. eigenvalues --    3.40104   3.42451   3.46540   3.48299   3.49488
 Alpha virt. eigenvalues --    3.51046   3.53434   3.56089   3.60619   3.61001
 Alpha virt. eigenvalues --    3.68348   4.07072   4.21063   4.25962   4.27503
 Alpha virt. eigenvalues --    4.29559   4.33248   4.36412   4.41514   4.42553
 Alpha virt. eigenvalues --    4.46765   4.48130   4.58971   4.60812   4.63042
 Alpha virt. eigenvalues --    4.67325   4.70997   4.80601   4.90349   5.12965
 Alpha virt. eigenvalues --    9.08093  81.41704
          Condensed to atoms (all electrons):
               1          2          3          4          5          6
     1  Br  34.867046   0.144300  -0.020590   0.057017  -0.042899  -0.048772
     2  C    0.144300   6.952945  -1.901776   3.670032  -2.243750  -0.296190
     3  C   -0.020590  -1.901776  12.985837  -9.993289   2.803454   0.219194
     4  C    0.057017   3.670032  -9.993289  38.554097 -10.729645  -0.208100
     5  C   -0.042899  -2.243750   2.803454 -10.729645  21.348286  -2.523981
     6  S   -0.048772  -0.296190   0.219194  -0.208100  -2.523981  16.728835
     7  O   -0.000990  -0.021983   0.031834  -0.411461  -0.067489   0.427489
     8  O   -0.000706  -0.021244   0.055654  -0.093602  -0.126916   0.135550
     9  C    0.000477   0.012039  -0.018435  -0.077099   0.234827  -0.398090
    10  C   -0.000346  -0.001552  -0.028292   0.064158   0.072272  -0.292335
    11  O    0.000003   0.000100  -0.000844   0.003244   0.009668  -0.015213
    12  C    0.000004   0.000328  -0.001940   0.003826   0.023243  -0.032624
    13  C   -0.000006  -0.000086   0.000082   0.004427   0.002855  -0.027140
    14  N    0.000000   0.000000   0.000001   0.000004  -0.000095   0.001095
    15  C    0.000037   0.001124  -0.004044   0.021145   0.075368  -0.185009
    16  O    0.000000  -0.000025   0.000115  -0.000656  -0.005199   0.019342
    17  C    0.000183   0.002734   0.006947   0.060907  -0.085577   0.050892
    18  O   -0.000926  -0.018757   0.088597   0.136141  -0.208305   0.522531
    19  C    0.039869  -0.207779   1.877574 -12.915659  -0.262001   0.149471
    20  C   -0.043152  -0.191232  -0.064009  -2.617732  -1.438700   0.528121
    21  H   -0.003786  -0.000312   0.274618   0.034047   0.019781  -0.002995
    22  H   -0.001033  -0.020220  -0.036240   0.379662  -0.022760   0.044766
    23  H   -0.000000  -0.000049   0.000054   0.006245  -0.008028   0.008295
    24  H    0.000000   0.000000  -0.000023  -0.000474   0.002106  -0.005366
[...]
 0000023,0.00000359,-0.00001505,-0.00000952,0.00005016,-0.00000910,0.00
 000225,-0.00003034,0.00008528,0.00002671,0.00010874,0.00042483,-0.0001
 4374,-0.00010103,0.00094502,0.00022776,-0.00409714,-0.00751118,0.00645
 115,-0.03845148,0.17863232,0.00000026,-0.00000097,-0.00000085,-0.00000
 032,0.00000155,0.00000025,-0.00000011,-0.00000067,-0.00000004,-0.00000
 029,0.00000089,0.00000070,-0.00000106,-0.00000094,0.00000058,0.0000106
 4,0.00000957,0.00001056,0.00000502,-0.00000648,-0.00000271,-0.00000301
 ,0.00000699,0.00002261,0.00005643,-0.00005579,0.00005504,-0.00077428,0
 .00034849,-0.00059676,0.00121249,0.00025624,-0.00177348,0.00145658,-0.
 00469058,-0.00078819,-0.00103659,0.01983893,-0.02617273,-0.02281964,0.
 17388204,-0.28293603,-0.00042976,0.00036481,0.00095840,0.00009101,-0.0
 0025039,-0.00006640,0.00004196,-0.00000196,-0.00006249,-0.00000434,-0.
 00000385,0.00000119,0.00000012,-0.00000018,-0.00000064,-0.00000023,-0.
 00000005,0.00000017,0.00000012,-0.00000003,0.,0.00000001,0.00000016,0.
 00000005,0.00000319,-0.00002295,-0.00000956,0.00004206,-0.00002497,0.0
 0009514,-0.00016538,0.00014365,-0.00016217,0.00008028,-0.00009997,0.00
 020993,-0.00078107,0.00055190,0.00181787,0.00209177,0.00198024,-0.0019
 2015,0.02044650,-0.19210394,0.31136790,0.00000082,-0.00000306,0.000005
 74,-0.00000107,0.00000342,-0.00000192,0.00000117,-0.00000187,0.0000049
 4,0.00001272,-0.00000172,0.00000522,-0.00001567,0.00003877,0.00001788,
 0.00008578,-0.00016807,-0.00001824,-0.00007055,0.00004266,0.00000689,-
 0.00019906,0.00031104,0.00036315,-0.00045544,0.00027317,0.00068689,0.0
 0746026,0.00642512,0.00831684,0.00036306,-0.00010343,0.00201793,-0.001
 78708,-0.00016587,0.00061004,-0.01646355,-0.01361470,-0.02055443,0.003
 55740,-0.00133331,-0.00050013,-0.12553188,-0.07179276,-0.10486422,0.00
 558858,0.00431196,0.00478940,0.00006692,0.00165997,0.00091051,0.000014
 16,0.00008090,0.00002461,-0.00001025,-0.00000791,0.00000529,0.00000109
 ,-0.00000450,0.00000477,0.00000042,-0.00000046,0.00000235,0.00000059,0
 .00000281,-0.00000064,-0.00006673,0.00013091,0.00005708,0.00066279,-0.
 00003986,-0.00091311,0.00014053,0.00045058,-0.00067437,0.00008315,0.00
 019131,-0.00018203,-0.00394842,0.00126985,-0.00038512,0.00058599,0.000
 14968,-0.00012956,-0.00041159,-0.00021700,0.00049425,0.13029120,0.0000
 0062,-0.00000125,-0.00000585,-0.00000140,0.00000325,0.00000365,0.00000
 287,-0.00000421,-0.00000377,-0.00000881,0.00000025,-0.00000175,0.00000
 218,0.00001503,0.00000057,-0.00021604,0.00006735,0.00030971,0.00004788
 ,-0.00001027,-0.00002105,0.00004834,0.00022750,-0.00029719,-0.00038989
 ,-0.00060573,0.00130505,0.00353441,0.00512684,0.00451823,0.00054474,-0
 .00049681,0.00238239,-0.00105161,0.00024437,-0.00019311,0.00381454,0.0
 0594125,0.00329292,0.00038229,0.00036045,0.00074024,-0.06735552,-0.105
 33959,-0.08960105,-0.01108479,-0.03132188,-0.02560592,-0.00185160,-0.0
 0380534,0.00421903,0.00007546,-0.00003598,-0.00017641,0.00000687,-0.00
 000130,-0.00000114,-0.00000022,0.00000367,-0.00000122,-0.00000012,0.00
 000008,-0.00000130,-0.00000075,0.00000027,0.00000068,0.00003243,0.0002
 2661,-0.00004520,0.00052452,0.00033350,0.00010880,0.00004195,-0.000068
 43,-0.00011192,-0.00008952,-0.00018694,0.00000840,0.00118254,-0.000366
 34,-0.00004373,0.00019741,0.00004354,-0.00001316,-0.00015553,0.0001122
 1,-0.00012186,0.07174478,0.13045205,-0.00000124,0.00000501,-0.00001391
 ,0.00000037,-0.00000776,0.00000879,-0.00000451,0.00001041,-0.00000890,
 -0.00002594,-0.00001124,-0.00001377,0.00003390,-0.00009379,-0.00004686
 ,-0.00021143,0.00060803,0.00009213,0.00015352,-0.00011374,-0.00002037,
 0.00045968,-0.00091856,-0.00093132,0.00018590,0.00052007,-0.00104252,-
 0.01429802,-0.01182376,-0.01132852,-0.00140946,0.00175570,-0.00513702,
 0.00154499,-0.00097952,-0.00105090,0.00302869,-0.00114928,0.00221296,0
 .00057156,0.00031793,0.00112991,-0.10331146,-0.09634792,-0.19432173,0.
 00393573,0.00453767,0.00911468,0.00040767,0.00155533,-0.00037426,-0.00
 006535,-0.00018332,0.00003159,0.00002705,0.00001433,-0.00000792,-0.000
 00233,0.00001065,-0.00001279,-0.00000110,0.00000178,-0.00000477,-0.000
 00115,-0.00000603,0.00000115,0.00013843,-0.00030945,-0.00005985,-0.000
 30969,0.00022644,0.00128507,-0.00020581,0.00008905,0.00009188,-0.00008
 144,0.00011861,0.00011454,0.00039337,0.00026187,0.00003586,0.00019162,
 0.00010617,0.00011103,-0.00042609,0.00030789,-0.00005200,0.10950810,0.
 10151259,0.19976786,-0.00000031,-0.00000356,0.00001594,-0.00000319,0.0
 0000446,-0.00000664,-0.00000148,-0.00000312,0.00000913,0.00002692,0.00
 001347,0.00002459,-0.00006486,-0.00006918,0.00003239,0.00043635,0.0000
 0859,0.00023060,-0.00018570,0.00004062,-0.00018284,-0.00018859,0.00062
 810,0.00013968,0.00932201,-0.01846738,0.00131495,-0.00209609,-0.002675
 68,0.00113369,0.00059958,0.00018384,-0.00007735,-0.00001501,0.00000397
 ,0.00018602,0.00014400,-0.00026814,-0.00015351,0.00007166,0.00006978,0
 .00006924,0.00009348,-0.00233207,0.00092010,0.00135347,0.00171713,0.00
 198890,-0.10689098,0.11193266,-0.01993345,-0.00016458,0.00031346,0.000
 70835,-0.00002526,0.00000172,0.00000020,-0.00000399,-0.00001317,0.0000
 0304,0.00000052,-0.00000120,0.00000420,-0.00000005,0.00000098,-0.00000
 269,0.00101603,0.00087995,-0.00053389,0.00034653,-0.00086860,-0.000360
 91,0.00004224,-0.00002535,-0.00004202,-0.00003888,-0.00000533,-0.00000
 843,0.00014147,-0.00007478,-0.00005048,0.00001281,-0.00002922,-0.00001
 318,-0.00000676,-0.00000154,-0.00000571,-0.00002085,0.00007777,-0.0001
 3095,0.10613868,-0.00000133,0.00000161,0.00000363,0.00000940,0.0000006
 5,-0.00000225,0.00000702,-0.00000578,-0.00001048,-0.00000826,0.0000061
 8,-0.00000692,0.00000196,0.00020227,0.00002112,-0.00009961,-0.00157923
 ,0.00086449,0.00002682,0.00013995,-0.00003434,-0.00090812,0.00022880,0
 .00182454,0.00779747,-0.01175686,0.00037903,-0.00185049,-0.00103810,0.
 00006042,0.00038012,0.00006594,0.00007841,0.00007848,0.00011633,0.0000
 5176,-0.00023625,-0.00042516,0.00009741,0.00024432,-0.00008329,-0.0000
 4228,0.00015235,0.00076861,-0.00157405,0.00434618,-0.01563373,-0.00288
 033,0.10735690,-0.26941265,0.03883398,0.00010578,0.00008794,-0.0013933
 2,-0.00001339,0.00000555,-0.00000853,0.00000467,-0.00001141,0.00000630
 ,0.00000012,-0.00000078,-0.00000150,-0.00000173,0.00000301,0.00000085,
 0.00023929,0.00098100,-0.00032714,0.00029241,-0.00069735,-0.00003909,0
 .00003389,-0.00005126,0.00003433,-0.00002130,-0.00003218,-0.00001722,0
 .00007057,-0.00002677,-0.00003100,0.00002967,0.00001169,-0.00006252,-0
 .00001451,-0.00001097,0.00000179,0.00018136,-0.00053877,-0.00002451,-0
 .11614957,0.29361697,-0.00000461,0.00000225,0.00000623,0.00000391,-0.0
 0001026,-0.00000556,-0.00000496,-0.00000110,0.00000509,0.00000302,-0.0
 0000664,0.00000396,0.00002396,-0.00006619,-0.00002648,0.00004433,0.001
 14129,-0.00117004,-0.00002681,-0.00018065,0.00022673,0.00062691,-0.001
 00429,-0.00042424,-0.01080130,0.01603636,0.00073429,0.00313705,0.00173
 617,-0.00234862,-0.00007874,0.00007463,0.00035139,0.00044071,-0.000076
 97,-0.00041766,-0.00043021,-0.00096756,0.00048694,0.00020704,-0.000035
 51,0.00004200,0.00119807,-0.00028246,-0.00554773,0.01329286,-0.0386455
 6,-0.00127100,-0.02282474,0.05004371,-0.05655091,-0.00009433,-0.000490
 20,-0.00014766,0.00000789,0.00000867,0.00001412,-0.00000071,0.00000033
 ,-0.00000223,0.00000014,0.00000090,0.00000143,0.00000274,-0.00000222,0
 .00000028,-0.00011986,-0.00122716,0.00049489,-0.00056807,0.00095636,0.
 00045320,-0.00005015,-0.00003552,0.00015784,-0.00002425,0.00000373,0.0
 0001473,0.00006680,0.00009987,0.00003152,0.00003650,0.00003241,-0.0000
 6758,-0.00002733,-0.00000541,0.00000683,0.00017340,-0.00123072,0.00027
 932,0.01946623,-0.03570107,0.06411253,-0.00000138,0.00000289,0.0000074
 0,0.00000356,-0.00000410,-0.00000211,0.00000447,0.00000417,-0.00000058
 ,0.00000057,-0.00000002,-0.00000728,0.00002338,0.00007077,0.00003080,-
 0.00076176,-0.00086471,-0.00021456,0.00004791,0.00014301,0.00016040,0.
 00145224,0.00116118,0.00046150,-0.01831553,-0.00122930,-0.00698517,-0.
 00046733,0.00090815,-0.00006783,0.00075584,0.00061083,-0.00014855,0.00
 022409,-0.00036927,-0.00003810,-0.00001926,-0.00078703,0.00040432,0.00
 023811,0.00008603,0.00007789,0.00037552,0.00054803,-0.00042484,0.01045
 745,-0.00207991,-0.00193490,-0.27379466,-0.02077157,-0.08743541,0.0005
 1011,0.00002033,-0.00038486,-0.00001395,0.00001158,0.00000581,0.000005
 24,-0.00001331,0.00000151,-0.00000016,-0.00000070,-0.00000052,0.000001
 67,0.00000495,-0.00000055,-0.00035101,-0.00271331,0.00184075,0.0000731
 1,-0.00013552,-0.00003218,-0.00001952,-0.00006912,-0.00003118,-0.00003
 536,0.00002136,0.00006501,-0.00002188,-0.00002963,0.00005001,0.0000132
 0,-0.00002866,-0.00002398,-0.00001403,0.00002144,-0.00001075,0.0000686
 7,-0.00005766,-0.00009933,-0.01003336,-0.00206229,-0.00367256,0.289592
 14,-0.00000033,0.00000052,0.00000646,-0.00000255,-0.00000543,-0.000006
 14,-0.00000017,0.00000018,0.00000877,0.00001352,0.00000165,0.00000846,
 -0.00004157,-0.00000891,0.00002152,0.00004737,-0.00011110,0.00016638,0
 .00004199,0.00007100,0.00005375,0.00148152,0.00111133,-0.00070778,-0.0
 2065452,-0.00204304,-0.00621539,-0.00034584,0.00104577,0.00005237,0.00
 022024,-0.00061208,0.00030907,-0.00002053,0.00007621,0.00014638,-0.000
 00435,0.00023345,-0.00005648,-0.00007367,0.00010220,0.00004640,-0.0013
 9928,0.00157515,-0.00033826,-0.01317920,-0.00288994,-0.01395755,-0.017
 91266,-0.05765772,-0.00509488,-0.00001552,0.00011095,0.00021620,-0.000
 00940,-0.00000522,0.00000288,0.00000204,0.00000087,0.00000149,0.000000
 37,-0.00000093,0.00000160,0.00000042,0.00000161,-0.00000013,-0.0014506
 3,-0.00205955,0.00166355,0.00007239,0.00004968,-0.00003217,0.00002181,
 -0.00001067,0.00000559,-0.00001420,0.00000555,-0.00003197,0.00033997,-
 0.00007858,-0.00011797,0.00000088,-0.00000219,0.00001339,-0.00001303,-
 0.00000455,-0.00000155,0.00018533,-0.00037638,0.00000937,0.02511016,0.
 00506655,0.00983790,0.02760148,0.05641242,0.00000323,-0.00000592,-0.00
 001577,-0.00000301,0.00000664,0.00000973,0.00000705,-0.00000121,-0.000
 00203,-0.00000601,-0.00000282,-0.00002060,0.00000829,0.00004473,0.0000
 3642,0.00023905,-0.00000599,0.00017699,0.00001703,-0.00004934,-0.00009
 696,-0.00099360,-0.00085910,0.00205125,0.01925230,0.00176639,0.0071646
 3,-0.00018699,-0.00103870,-0.00017517,-0.00015094,0.00043161,0.0000963
 6,0.00021916,-0.00000485,-0.00017067,0.00009330,-0.00036400,0.00028992
 ,0.00008868,0.00002916,0.00003721,-0.00131682,0.00325672,-0.00049514,-
 0.02728527,-0.01375154,-0.02658727,-0.08585893,-0.00489063,-0.08083025
 ,0.00025839,-0.00017716,0.00000245,0.00002305,-0.00003738,-0.00001887,
 -0.00001227,0.00002298,0.00000060,-0.00000005,0.00000063,-0.00000281,-
 0.00000261,-0.00000192,0.00000330,0.00161835,0.00291269,-0.00207322,-0
 .00012513,-0.00005487,0.00025434,-0.00001348,-0.00004551,0.00006454,-0
 .00000267,-0.00000648,0.00002946,0.00026139,-0.00013075,-0.00005024,0.
 00001999,-0.00000100,-0.00004488,-0.00002581,-0.00000431,-0.00000273,0
 .00021618,-0.00092668,0.00015435,-0.00474471,-0.00010627,0.00056234,0.
 09840678,0.01398847,0.09964224,0.00007921,0.00025237,-0.00040330,0.002
 22178,-0.00211041,-0.00170924,0.00013986,0.00074965,-0.00028707,-0.001
 22711,-0.00226303,-0.00416061,-0.01285860,-0.01096813,0.01048051,-0.00
 292365,-0.00088438,0.00099484,0.00052755,0.00008882,-0.00016526,0.0000
 1881,0.00037284,0.00044617,-0.00009888,-0.00000769,-0.00020237,0.00002
 297,-0.00004620,0.00005135,-0.00001694,0.00001776,0.00000524,0.0000051
 2,-0.00000619,-0.00000669,0.00000353,0.00000026,0.00000209,-0.00000537
 ,0.00000241,0.00000147,0.00000031,0.00000447,-0.00000051,-0.00001783,0
 .00002165,0.00004002,0.00003876,0.00000740,-0.00001034,0.00141905,0.00
 039977,0.00104942,-0.22579563,-0.11669498,0.09513470,0.00696536,0.0016
 1441,-0.00332124,-0.00011826,0.00025770,0.00017416,-0.00038690,-0.0005
 9168,0.00058494,0.00000273,-0.00000768,0.00001398,-0.00000374,0.000009
 26,0.00000181,-0.00000215,0.00000183,0.00000066,-0.00000064,0.00000205
 ,0.00000194,-0.00000130,0.00000021,0.00000016,-0.00000013,0.00000023,0
 .00000161,0.00000042,0.00000032,-0.00000010,-0.00000310,0.00000168,0.0
 0000478,-0.00000600,0.00000789,-0.00000282,0.00000170,-0.00000198,-0.0
 0000421,0.23246780,0.00000505,-0.00024890,0.00003446,-0.00219219,0.005
 92999,0.00226052,0.00073866,-0.00080115,-0.00023324,-0.00215917,0.0047
 8520,0.00029503,-0.00435904,0.00060359,0.00291228,0.00022594,-0.002698
 68,-0.00060123,0.00038668,0.00020388,0.00031831,-0.00005757,-0.0000736
 2,-0.00074482,0.00016350,-0.00012749,0.00004463,-0.00002224,0.00003196
 ,-0.00006492,0.00000126,0.00000371,0.00000789,0.00000195,-0.00000110,-
 0.00000045,-0.00000080,-0.00000113,-0.00000327,0.00000311,-0.00000285,
 0.00000218,0.00000463,-0.00000715,-0.00000112,0.00000595,-0.00000355,-
 0.00001251,-0.00002057,-0.00001760,-0.00001708,0.00039645,-0.00015537,
 0.00109024,-0.11737697,-0.11468144,0.06633450,-0.00555991,0.00221629,0
 .00216972,0.00024265,-0.00058361,-0.00014567,-0.00023270,0.00034086,0.
 00021548,-0.00000008,0.00000459,0.00001278,0.00000287,-0.00000459,-0.0
 0000073,0.00000224,-0.00000109,-0.00000052,0.00000009,-0.00000001,-0.0
 0000028,0.00000183,0.00000061,-0.00000040,0.00000027,-0.00000013,-0.00
 000123,-0.00000091,0.00000004,-0.00000003,0.00000186,0.00000101,-0.000
 00256,0.00000177,0.00000194,-0.00000587,-0.00000044,0.00000110,0.00000
 662,0.12798609,0.10855572,0.00058392,0.00048484,-0.00107852,-0.0015548
 6,0.00256183,-0.00306115,-0.00032726,-0.00022335,-0.00089098,-0.003757
 14,0.00044610,-0.00172972,-0.01236017,-0.00823014,0.01129713,-0.001381
 71,-0.00167670,-0.00065827,0.00039682,0.00013596,0.00043345,-0.0000061
 4,0.00023742,-0.00001457,0.00005297,-0.00006679,-0.00009691,-0.0000024
 8,-0.00001293,-0.00000227,-0.00000577,0.00001634,0.00000935,0.00000328
 ,-0.00000571,-0.00000323,0.00000157,-0.00000248,-0.00000055,-0.0000007
 4,0.00000067,0.00000142,0.00000107,-0.00000429,-0.00000247,-0.00000714
 ,0.00001535,0.00002100,-0.00000535,-0.00000314,-0.00002067,0.00007435,
 0.00021811,-0.00067775,0.09554202,0.06634130,-0.11127207,0.02221140,0.
 01433653,-0.00762556,0.00016646,-0.00015242,0.00005301,-0.00067075,-0.
 00038659,0.00061803,0.00000240,0.00000533,0.00002090,-0.00000011,0.000
 00266,-0.00000046,-0.00000095,0.00000028,-0.00000016,-0.00000038,0.000
 00153,0.00000104,0.00000002,0.00000087,-0.00000024,-0.00000023,-0.0000
 0026,0.00000028,-0.00000054,-0.00000013,-0.00000014,-0.00000002,0.0000
 0181,0.00000085,-0.00000304,0.00000439,-0.00000676,0.00000178,-0.00000
 164,0.00001211,-0.09939404,-0.07254940,0.11355184,0.00052206,0.0010299
 1,0.00000265,-0.01382993,-0.00417853,-0.01299865,-0.00072855,-0.003887
 05,0.00202795,-0.00003323,0.00024281,0.00092161,0.00262257,-0.00217555
 ,-0.00009372,0.00026881,-0.00010297,0.00013072,0.00013116,-0.00003221,
 0.00025530,-0.00001440,0.00000642,-0.00001802,0.00000782,0.00000516,-0
 .00000928,0.00000245,-0.00000118,-0.00000042,-0.00000196,-0.00000079,0
 .00000026,0.00000023,0.00000032,-0.00000021,0.,-0.00000022,0.00000052,
 -0.00000025,-0.00000027,0.00000032,0.00000042,0.00000084,-0.00000144,-
 0.00000135,-0.00000046,-0.00000049,-0.00000047,0.00000016,-0.00000573,
 -0.00003896,-0.00001950,-0.00001209,0.00451295,-0.00071204,0.00177724,
 -0.25166107,-0.06247737,-0.13183492,-0.00052544,-0.00006720,-0.0005852
 3,-0.00013766,0.00029967,0.00000410,-0.00000048,-0.00000053,0.00000155
 ,-0.00000022,0.00000018,0.,0.00000025,0.00000020,0.00000017,-0.0000000
 5,-0.00000016,0.00000006,0.00000009,-0.00000002,0.00000021,0.00000014,
 -0.00000006,0.00000009,0.00000006,0.00000013,-0.00000004,-0.00000004,0
 .00000017,-0.00000007,0.00000019,0.00000020,-0.00000011,0.00000020,-0.
 00000008,0.00000028,-0.00044871,0.00180971,0.00044074,0.25935335,0.000
 45640,-0.00127016,-0.00112604,-0.01162128,-0.00039553,-0.00793294,-0.0
 0393076,0.00355611,0.00289492,0.00038463,-0.00106311,0.00036002,-0.002
 12874,0.00540381,0.00339800,0.00031549,0.00057440,-0.00028729,0.000175
 44,-0.00016132,0.00013892,-0.00008178,0.00009867,0.00034155,-0.0000707
 4,0.00000928,-0.00007812,0.00000660,-0.00001989,0.00002190,-0.00000834
 ,0.00000698,0.00000499,0.00000373,-0.00000276,-0.00000494,0.00000233,0
 .00000036,0.00000036,-0.00000247,0.00000115,0.00000185,-0.00000049,0.0
 0000273,-0.00000119,-0.00000787,0.00000470,0.00002321,0.00001793,0.000
 01459,0.00000301,-0.00006569,-0.00010735,0.00009147,0.00660227,0.00650
 310,0.00552321,-0.06196254,-0.05983814,-0.03327250,-0.00041504,-0.0000
 7790,-0.00047321,0.00028737,-0.00055396,-0.00022981,0.00000395,-0.0000
 0566,0.00000303,-0.00000101,0.00000385,0.00000090,-0.00000059,0.000000
 64,0.00000019,-0.00000042,0.00000115,0.00000108,-0.00000072,-0.0000000
 5,-0.00000005,-0.00000008,0.00000027,0.00000040,0.00000002,0.00000019,
 -0.00000009,-0.00000097,-0.00000002,0.00000254,-0.00000054,-0.00000072
 ,0.00000076,0.00000035,0.00000007,-0.00000023,0.00178327,-0.00327105,-
 0.00149535,0.07026030,0.05058559,0.00161221,-0.00041229,0.00094417,0.0
 1351588,0.00469914,0.00895731,0.00188065,0.00288693,-0.00061353,0.0006
 0546,0.00009674,-0.00051340,-0.00009478,0.00310652,-0.00387188,-0.0009
 6324,-0.00051387,0.00125808,-0.00062800,0.00023287,-0.00093610,0.00010
 777,-0.00022095,-0.00062397,0.00008638,-0.00002811,0.00020743,-0.00002
 741,0.00004961,-0.00004663,0.00002323,-0.00001474,-0.00000394,-0.00000
 795,0.00000506,0.00000594,-0.00000430,0.00000030,-0.00000398,0.0000053
 4,-0.00000140,-0.00000190,-0.00000009,-0.00000879,0.00000714,0.0000205
 3,-0.00001090,-0.00003969,-0.00003329,-0.00002519,0.00001043,0.0002817
 4,0.00031298,-0.00030960,-0.02403280,-0.00664817,-0.01167803,-0.133612
 84,-0.03412760,-0.14150713,0.00058894,0.00008589,0.00062561,-0.0000085
 3,-0.00023176,0.00002915,-0.00000459,0.00000982,-0.00001492,0.00000296
 ,-0.00000889,-0.00000137,0.00000314,-0.00000197,-0.00000025,0.00000072
 ,-0.00000217,-0.00000179,0.00000197,0.00000028,-0.00000040,0.00000054,
 -0.00000043,-0.00000144,-0.00000045,-0.00000024,-0.00000017,0.00000235
 ,-0.00000107,-0.00000457,0.00000255,0.00000037,0.00000081,0.00000131,0
 .00000193,-0.00000165,0.00067795,-0.00131932,0.00112205,0.13999664,0.0
 3208940,0.14700820\\0.00000194,-0.00000567,0.00000092,0.00000365,0.000
 00141,0.00000106,-0.00000562,0.00001490,0.00000210,0.00000819,-0.00001
 251,-0.00000456,-0.00000954,0.00000785,-0.00000087,0.00000364,0.000004
 21,0.00000252,0.00000739,0.00000743,0.00000458,0.00000510,0.00000399,0
 .00000039,-0.00000075,0.00000073,-0.00000239,-0.00000338,0.00000307,0.
 00000024,-0.00000552,-0.00000020,0.00000101,-0.00000870,-0.00000414,-0
 .00000373,-0.00000560,-0.00000359,-0.00000222,-0.00000558,-0.00000374,
 0.00000015,0.00000019,0.00000142,-0.00000157,0.00000048,0.00000434,0.0
 0000053,0.00000645,-0.00000035,-0.00000125,0.00001053,-0.00000349,0.00
 000438,0.00001214,0.00000177,0.00000472,0.00000771,-0.00001405,0.00000
 178,0.00000052,0.00000419,-0.00000311,-0.00000095,0.00001257,-0.000000
 49,0.00000253,0.00000735,-0.00000041,-0.00000655,0.00000438,-0.0000018
 2,-0.00000859,-0.00000814,-0.00000064,-0.00001127,-0.00000333,-0.00000
 222,-0.00000167,-0.00000421,0.00000055,-0.00000884,-0.00000514,-0.0000
 0333,-0.00000543,-0.00000343,-0.00000193,-0.00000508,0.00000532,-0.000
 00180,0.00000835,0.00000238,0.00000187,0.00000534,-0.00000263,0.000001
 36,0.00000708,-0.00000625,0.00000229,0.00000185,-0.00000644,0.00000188
 \\\@


 IF THE FACTS DO NOT CONFORM TO THE THEORY, THEY MUST BE DISPOSED OF.
 Job cpu time:       0 days  6 hours 21 minutes 16.6 seconds.
 Elapsed time:       0 days  6 hours 22 minutes 42.3 seconds.
 File lengths (MBytes):  RWF=    966 Int=      0 D2E=      0 Chk=     29 Scr=      1
 Normal termination of Gaussian 16 at Thu Jul 27 00:31:45 2023.
 
 Thu Jul 27 12:31:45 AM IDT 2023
 ark
 108588.208u 101.446s 30:18:46.82 99.5%	0+0k 3384+38142344io 20pf+0w
 
 ****** xrung16 messages ******
 Job 2-2_neutral_pka is run from:
 /var/spool/scratch/tchem07/g16/2-2_neutral_pka
 108588.203u 101.427s 30:18:46.78 99.5%	0+0k 3376+38142312io 20pf+0w
