 cputime      unlimited
 filesize     unlimited
 datasize     unlimited
 stacksize    unlimited
 coredumpsize 0 kbytes
 memoryuse    256000 kbytes
 vmemoryuse   unlimited
 descriptors  1024 
 memorylocked 8192 kbytes
 maxproc      382511 
 maxlocks     unlimited
 maxsignal    382511 
 maxmessage   819200 
 maxnice      0 
 maxrtprio    0 
 maxrttime    unlimited
 Thu Jul 27 12:31:46 AM IDT 2023
 ark
 
        *=*=*=*=*=*=*=*=*=*=*=*=*=*=*=*=*
        * xrung16: Running g16          *
        * (Command = time /bin/nice g16 *
        *=*=*=*=*=*=*=*=*=*=*=*=*=*=*=*=*
        g16root=/private/chem/g16E03
        g16 = /private/chem/g16E03/g16/g16
 
 Entering Gaussian System, Link 0=g16
 Initial command:
 /private/chem/g16E03/g16/l1.exe "/var/spool/scratch/tchem07/g16/2-3_neutral_pka/Gau-2924230.inp" -scrdir="/var/spool/scratch/tchem07/g16/2-3_neutral_pka/"
 Entering Link 1 = /private/chem/g16E03/g16/l1.exe PID=   2924231.
  
 Copyright (c) 1988,1990,1992,1993,1995,1998,2003,2009,2016,
            Gaussian, Inc.  All Rights Reserved.
  
 This is part of the Gaussian(R) 16 program.  It is based on
 the Gaussian(R) 09 system (copyright 2009, Gaussian, Inc.),
 the Gaussian(R) 03 system (copyright 2003, Gaussian, Inc.),
 the Gaussian(R) 98 system (copyright 1998, Gaussian, Inc.),
 the Gaussian(R) 94 system (copyright 1995, Gaussian, Inc.),
 the Gaussian 92(TM) system (copyright 1992, Gaussian, Inc.),
 the Gaussian 90(TM) system (copyright 1990, Gaussian, Inc.),
 the Gaussian 88(TM) system (copyright 1988, Gaussian, Inc.),
 the Gaussian 86(TM) system (copyright 1986, Carnegie Mellon
 University), and the Gaussian 82(TM) system (copyright 1983,
 Carnegie Mellon University). Gaussian is a federally registered
 trademark of Gaussian, Inc.
  
 This software contains proprietary and confidential information,
 including trade secrets, belonging to Gaussian, Inc.
  
 This software is provided under written license and may be
 used, copied, transmitted, or stored only in accord with that
 written license.
  
 The following legend is applicable only to US Government
 contracts under FAR:
  
                    RESTRICTED RIGHTS LEGEND
  
 Use, reproduction and disclosure by the US Government is
 subject to restrictions as set forth in subparagraphs (a)
 and (c) of the Commercial Computer Software - Restricted
 Rights clause in FAR 52.227-19.
  
 Gaussian, Inc.
 340 Quinnipiac St., Bldg. 40, Wallingford CT 06492
  
  
 ---------------------------------------------------------------
 Warning -- This program may not be used in any manner that
 competes with the business of Gaussian, Inc. or will provide
 assistance to any competitor of Gaussian, Inc.  The licensee
 of this program is prohibited from giving any competitor of
 Gaussian, Inc. access to this program.  By using this program,
 the user acknowledges that Gaussian, Inc. is engaged in the
 business of creating and licensing software in the field of
 computational chemistry and represents and warrants to the
 licensee that it is not a competitor of Gaussian, Inc. and that
 it will not use this program in any manner prohibited above.
 ---------------------------------------------------------------
  

 Cite this work as:
 Gaussian 16, Revision A.03,
 M. J. Frisch, G. W. Trucks, H. B. Schlegel, G. E. Scuseria, 
 M. A. Robb, J. R. Cheeseman, G. Scalmani, V. Barone, 
 G. A. Petersson, H. Nakatsuji, X. Li, M. Caricato, A. V. Marenich, 
 J. Bloino, B. G. Janesko, R. Gomperts, B. Mennucci, H. P. Hratchian, 
 J. V. Ortiz, A. F. Izmaylov, J. L. Sonnenberg, D. Williams-Young, 
 F. Ding, F. Lipparini, F. Egidi, J. Goings, B. Peng, A. Petrone, 
 T. Henderson, D. Ranasinghe, V. G. Zakrzewski, J. Gao, N. Rega, 
 G. Zheng, W. Liang, M. Hada, M. Ehara, K. Toyota, R. Fukuda, 
 J. Hasegawa, M. Ishida, T. Nakajima, Y. Honda, O. Kitao, H. Nakai, 
 T. Vreven, K. Throssell, J. A. Montgomery, Jr., J. E. Peralta, 
 F. Ogliaro, M. J. Bearpark, J. J. Heyd, E. N. Brothers, K. N. Kudin, 
 V. N. Staroverov, T. A. Keith, R. Kobayashi, J. Normand, 
 K. Raghavachari, A. P. Rendell, J. C. Burant, S. S. Iyengar, 
 J. Tomasi, M. Cossi, J. M. Millam, M. Klene, C. Adamo, R. Cammi, 
 J. W. Ochterski, R. L. Martin, K. Morokuma, O. Farkas, 
 J. B. Foresman, and D. J. Fox, Gaussian, Inc., Wallingford CT, 2016.
 
 ******************************************
 Gaussian 16:  ES64L-G16RevA.03 25-Dec-2016
                27-Jul-2023 
 ******************************************
 %chk=/home/ch/tchem07/g16/2-3_neutral_pka.chk
 -------------------------------------------------------
 #P M062X/6-31+G(d,p) Opt Freq SCRF=(SMD, Solvent=Water)
 -------------------------------------------------------
 1/18=20,19=15,26=3,38=1/1,3;
 2/9=110,12=2,17=6,18=5,40=1/2;
 3/5=1,6=6,7=111,11=2,25=1,30=1,70=32201,71=1,72=1,74=-55/1,2,3;
 4//1;
 5/5=2,38=5,53=1/2;
 6/7=2,8=2,9=2,10=2,28=1/1;
 7//1,2,3,16;
 1/18=20,19=15,26=3/3(2);
 2/9=110/2;
 99//99;
 2/9=110/2;
 3/5=1,6=6,7=111,11=2,25=1,30=1,70=32205,71=1,72=1,74=-55/1,2,3;
 4/5=5,16=3,69=1/1;
 5/5=2,38=5,53=1/2;
 7//1,2,3,16;
 1/18=20,19=15,26=3/3(-5);
 2/9=110/2;
 6/7=2,8=2,9=2,10=2,19=2,28=1/1;
 99/9=1/99;
 Leave Link    1 at Thu Jul 27 00:31:46 2023, MaxMem=           0 cpu:               0.0 elap:               0.0
 (Enter /private/chem/g16E03/g16/l101.exe)
 ---------------
 2-3_neutral_pka
 ---------------
 Symbolic Z-matrix:
 Charge =  0 Multiplicity = 1
 O
 C                    1    B1
 C                    2    B2       1    A1
 C                    3    B3       2    A2       1    D1       0
 C                    4    B4       3    A3       2    D2       0
 C                    5    B5       4    A4       3    D3       0
 C                    5    B6       4    A5       3    D4       0
 C                    7    B7       5    A6       4    D5       0
 C                    8    B8       7    A7       5    D6       0
 C                    9    B9       8    A8       7    D7       0
 C                    10   B10      9    A9       8    D8       0
 C                    11   B11      10   A10      9    D9       0
 C                    9    B12      8    A11      7    D10      0
 C                    13   B13      9    A12      8    D11      0
 C                    14   B14      13   A13      9    D12      0
 C                    15   B15      14   A14      13   D13      0
 C                    16   B16      15   A15      14   D14      0
 C                    7    B17      5    A16      4    D15      0
 N                    18   B18      7    A17      5    D16      0
 C                    3    B19      2    A18      1    D17      0
 H                    1    B20      2    A19      3    D18      0
 H                    4    B21      3    A20      2    D19      0
 H                    4    B22      3    A21      2    D20      0
 H                    6    B23      5    A22      4    D21      0
 H                    6    B24      5    A23      4    D22      0
 H                    7    B25      5    A24      4    D23      0
 H                    10   B26      9    A25      8    D24      0
 H                    11   B27      10   A26      9    D25      0
 H                    11   B28      10   A27      9    D26      0
 H                    12   B29      11   A28      10   D27      0
 H                    12   B30      11   A29      10   D28      0
 H                    13   B31      9    A30      8    D29      0
 H                    14   B32      13   A31      9    D30      0
 H                    15   B33      14   A32      13   D31      0
 H                    17   B34      16   A33      15   D32      0
 H                    17   B35      16   A34      15   D33      0
 H                    17   B36      16   A35      15   D34      0
 H                    18   B37      7    A36      5    D35      0
 H                    18   B38      7    A37      5    D36      0
 H                    19   B39      18   A38      7    D37      0
 H                    19   B40      18   A39      7    D38      0
 H                    20   B41      3    A40      2    D39      0
 H                    20   B42      3    A41      2    D40      0
       Variables:
  B1                    1.43                     
  B2                    1.52862                  
  B3                    1.5623                   
  B4                    1.56305                  
  B5                    1.50965                  
  B6                    1.54833                  
  B7                    1.53883                  
  B8                    1.51128                  
  B9                    1.53694                  
  B10                   1.5225                   
  B11                   1.53317                  
  B12                   1.34363                  
  B13                   1.55083                  
  B14                   1.37669                  
  B15                   1.55096                  
  B16                   1.54                     
  B17                   1.54                     
  B18                   1.47                     
  B19                   1.3552                   
  B20                   0.96                     
  B21                   1.07                     
  B22                   1.07                     
  B23                   1.07                     
  B24                   1.07                     
  B25                   1.07                     
  B26                   1.07                     
  B27                   1.07                     
  B28                   1.07                     
  B29                   1.07                     
  B30                   1.07                     
  B31                   1.07                     
  B32                   1.07                     
  B33                   1.07                     
  B34                   1.07                     
  B35                   1.07                     
  B36                   1.07                     
  B37                   1.07                     
  B38                   1.07                     
  B39                   1.                       
  B40                   1.                       
  B41                   1.07                     
  B42                   1.07                     
  A1                  114.55991                  
  A2                  107.23397                  
  A3                  102.33371                  
  A4                  101.99382                  
  A5                  112.96947                  
  A6                  100.90789                  
  A7                  106.94528                  
  A8                  106.77147                  
  A9                  114.11286                  
  A10                 108.57685                  
  A11                 122.39364                  
  A12                 117.1637                   
  A13                 120.4625                   
  A14                 120.47417                  
  A15                 121.40569                  
  A16                 112.60936                  
  A17                 109.47122                  
  A18                 126.16089                  
  A19                 109.47122                  
  A20                 115.16785                  
  A21                 107.85353                  
  A22                 110.7348                   
  A23                 113.61075                  
  A24                 111.20741                  
  A25                 110.0395                   
  A26                 108.80971                  
  A27                 110.627                    
  A28                 111.10381                  
  A29                 108.83186                  
  A30                 121.41816                  
  A31                 119.76875                  
  A32                 119.76292                  
  A33                 109.47122                  
  A34                 109.47122                  
  A35                 109.47122                  
  A36                 109.47122                  
  A37                 109.47122                  
  A38                 109.47122                  
  A39                 109.47122                  
  A40                 120.                       
  A41                 120.                       
  D1                 -149.4504                   
  D2                    0.12891                  
  D3                   31.59923                  
  D4                  160.72195                  
  D5                   73.96598                  
  D6                   27.54083                  
  D7                   -0.54508                  
  D8                 -145.88541                  
  D9                  170.87833                  
  D10                 179.8477                   
  D11                   0.07042                  
  D12                   0.08064                  
  D13                  -0.08972                  
  D14                 179.96046                  
  D15                 -48.48083                  
  D16                 -62.92558                  
  D17                  27.36455                  
  D18                 176.35323                  
  D19                -117.63663                  
  D20                 120.94369                  
  D21                  65.85824                  
  D22                -172.35197                  
  D23                -169.9815                   
  D24                  91.15611                  
  D25                  52.65723                  
  D26                 -67.48376                  
  D27                  65.30288                  
  D28                -174.39206                  
  D29                -179.95169                  
  D30                -179.93575                  
  D31                 179.91325                  
  D32                  29.99029                  
  D33                 149.99029                  
  D34                 -90.00971                  
  D35                 177.07442                  
  D36                  57.07442                  
  D37                 180.                       
  D38                 -60.                       
  D39                -178.10695                  
  D40                   1.89306                  
 
     9 tetrahedral angles replaced.
 ITRead=  0  0  0  0  0  0  0  0  0  0  0  0  0  0  0  0  0  0  0  0
 ITRead=  0  0  0  0  0  0  0  0  0  0  0  0  0  0  0  0  0  0  0  0
 ITRead=  0  0  0
 MicOpt= -1 -1 -1 -1 -1 -1 -1 -1 -1 -1 -1 -1 -1 -1 -1 -1 -1 -1 -1 -1
 MicOpt= -1 -1 -1 -1 -1 -1 -1 -1 -1 -1 -1 -1 -1 -1 -1 -1 -1 -1 -1 -1
 MicOpt= -1 -1 -1
 NAtoms=     43 NQM=       43 NQMF=       0 NMMI=      0 NMMIF=      0
                NMic=       0 NMicF=      0.
                    Isotopes and Nuclear Properties:
 (Nuclear quadrupole moments (NQMom) in fm**2, nuclear magnetic moments (NMagM)
  in nuclear magnetons)

  Atom         1           2           3           4           5           6           7           8           9          10
 IAtWgt=          16          12          12          12          12          12          12          12          12          12
 AtmWgt=  15.9949146  12.0000000  12.0000000  12.0000000  12.0000000  12.0000000  12.0000000  12.0000000  12.0000000  12.0000000
 NucSpn=           0           0           0           0           0           0           0           0           0           0
 AtZEff=  -0.0000000  -0.0000000  -0.0000000  -0.0000000  -0.0000000  -0.0000000  -0.0000000  -0.0000000  -0.0000000  -0.0000000
 NQMom=    0.0000000   0.0000000   0.0000000   0.0000000   0.0000000   0.0000000   0.0000000   0.0000000   0.0000000   0.0000000
 NMagM=    0.0000000   0.0000000   0.0000000   0.0000000   0.0000000   0.0000000   0.0000000   0.0000000   0.0000000   0.0000000
 AtZNuc=   8.0000000   6.0000000   6.0000000   6.0000000   6.0000000   6.0000000   6.0000000   6.0000000   6.0000000   6.0000000

  Atom        11          12          13          14          15          16          17          18          19          20
 IAtWgt=          12          12          12          12          12          12          12          12          14          12
 AtmWgt=  12.0000000  12.0000000  12.0000000  12.0000000  12.0000000  12.0000000  12.0000000  12.0000000  14.0030740  12.0000000
 NucSpn=           0           0           0           0           0           0           0           0           2           0
 AtZEff=  -0.0000000  -0.0000000  -0.0000000  -0.0000000  -0.0000000  -0.0000000  -0.0000000  -0.0000000  -0.0000000  -0.0000000
 NQMom=    0.0000000   0.0000000   0.0000000   0.0000000   0.0000000   0.0000000   0.0000000   0.0000000   2.0440000   0.0000000
 NMagM=    0.0000000   0.0000000   0.0000000   0.0000000   0.0000000   0.0000000   0.0000000   0.0000000   0.4037610   0.0000000
 AtZNuc=   6.0000000   6.0000000   6.0000000   6.0000000   6.0000000   6.0000000   6.0000000   6.0000000   7.0000000   6.0000000

  Atom        21          22          23          24          25          26          27          28          29          30
 IAtWgt=           1           1           1           1           1           1           1           1           1           1
 AtmWgt=   1.0078250   1.0078250   1.0078250   1.0078250   1.0078250   1.0078250   1.0078250   1.0078250   1.0078250   1.0078250
 NucSpn=           1           1           1           1           1           1           1           1           1           1
 AtZEff=  -0.0000000  -0.0000000  -0.0000000  -0.0000000  -0.0000000  -0.0000000  -0.0000000  -0.0000000  -0.0000000  -0.0000000
 NQMom=    0.0000000   0.0000000   0.0000000   0.0000000   0.0000000   0.0000000   0.0000000   0.0000000   0.0000000   0.0000000
 NMagM=    2.7928460   2.7928460   2.7928460   2.7928460   2.7928460   2.7928460   2.7928460   2.7928460   2.7928460   2.7928460
 AtZNuc=   1.0000000   1.0000000   1.0000000   1.0000000   1.0000000   1.0000000   1.0000000   1.0000000   1.0000000   1.0000000

  Atom        31          32          33          34          35          36          37          38          39          40
 IAtWgt=           1           1           1           1           1           1           1           1           1           1
 AtmWgt=   1.0078250   1.0078250   1.0078250   1.0078250   1.0078250   1.0078250   1.0078250   1.0078250   1.0078250   1.0078250
 NucSpn=           1           1           1           1           1           1           1           1           1           1
 AtZEff=  -0.0000000  -0.0000000  -0.0000000  -0.0000000  -0.0000000  -0.0000000  -0.0000000  -0.0000000  -0.0000000  -0.0000000
 NQMom=    0.0000000   0.0000000   0.0000000   0.0000000   0.0000000   0.0000000   0.0000000   0.0000000   0.0000000   0.0000000
 NMagM=    2.7928460   2.7928460   2.7928460   2.7928460   2.7928460   2.7928460   2.7928460   2.7928460   2.7928460   2.7928460
 AtZNuc=   1.0000000   1.0000000   1.0000000   1.0000000   1.0000000   1.0000000   1.0000000   1.0000000   1.0000000   1.0000000

  Atom        41          42          43
 IAtWgt=           1           1           1
 AtmWgt=   1.0078250   1.0078250   1.0078250
 NucSpn=           1           1           1
 AtZEff=  -0.0000000  -0.0000000  -0.0000000
 NQMom=    0.0000000   0.0000000   0.0000000
 NMagM=    2.7928460   2.7928460   2.7928460
 AtZNuc=   1.0000000   1.0000000   1.0000000
 Leave Link  101 at Thu Jul 27 00:31:47 2023, MaxMem=   104857600 cpu:               0.3 elap:               0.3
 (Enter /private/chem/g16E03/g16/l103.exe)

 GradGradGradGradGradGradGradGradGradGradGradGradGradGradGradGradGradGrad
 Berny optimization.
 Initialization pass.
                           ----------------------------
                           !    Initial Parameters    !
                           ! (Angstroms and Degrees)  !
 --------------------------                            --------------------------
 ! Name  Definition              Value          Derivative Info.                !
 --------------------------------------------------------------------------------
 ! R1    R(1,2)                  1.43           estimate D2E/DX2                !
 ! R2    R(1,21)                 0.96           estimate D2E/DX2                !
 ! R3    R(2,3)                  1.5286         estimate D2E/DX2                !
 ! R4    R(2,6)                  1.5575         estimate D2E/DX2                !
 ! R5    R(2,12)                 1.546          estimate D2E/DX2                !
 ! R6    R(3,4)                  1.5623         estimate D2E/DX2                !
 ! R7    R(3,20)                 1.3552         estimate D2E/DX2                !
 ! R8    R(4,5)                  1.563          estimate D2E/DX2                !
 ! R9    R(4,22)                 1.07           estimate D2E/DX2                !
 ! R10   R(4,23)                 1.07           estimate D2E/DX2                !
 ! R11   R(5,6)                  1.5096         estimate D2E/DX2                !
 ! R12   R(5,7)                  1.5483         estimate D2E/DX2                !
 ! R13   R(5,10)                 1.5383         estimate D2E/DX2                !
 ! R14   R(6,24)                 1.07           estimate D2E/DX2                !
 ! R15   R(6,25)                 1.07           estimate D2E/DX2                !
 ! R16   R(7,8)                  1.5388         estimate D2E/DX2                !
 ! R17   R(7,18)                 1.54           estimate D2E/DX2                !
 ! R18   R(7,26)                 1.07           estimate D2E/DX2                !
 ! R19   R(8,9)                  1.5113         estimate D2E/DX2                !
 ! R20   R(8,16)                 1.3438         estimate D2E/DX2                !
 ! R21   R(9,10)                 1.5369         estimate D2E/DX2                !
 ! R22   R(9,13)                 1.3436         estimate D2E/DX2                !
 ! R23   R(10,11)                1.5225         estimate D2E/DX2                !
 ! R24   R(10,27)                1.07           estimate D2E/DX2                !
 ! R25   R(11,12)                1.5332         estimate D2E/DX2                !
 ! R26   R(11,28)                1.07           estimate D2E/DX2                !
 ! R27   R(11,29)                1.07           estimate D2E/DX2                !
 ! R28   R(12,30)                1.07           estimate D2E/DX2                !
 ! R29   R(12,31)                1.07           estimate D2E/DX2                !
 ! R30   R(13,14)                1.5508         estimate D2E/DX2                !
 ! R31   R(13,32)                1.07           estimate D2E/DX2                !
 ! R32   R(14,15)                1.3767         estimate D2E/DX2                !
 ! R33   R(14,33)                1.07           estimate D2E/DX2                !
 ! R34   R(15,16)                1.551          estimate D2E/DX2                !
 ! R35   R(15,34)                1.07           estimate D2E/DX2                !
 ! R36   R(16,17)                1.54           estimate D2E/DX2                !
 ! R37   R(17,35)                1.07           estimate D2E/DX2                !
 ! R38   R(17,36)                1.07           estimate D2E/DX2                !
 ! R39   R(17,37)                1.07           estimate D2E/DX2                !
 ! R40   R(18,19)                1.47           estimate D2E/DX2                !
 ! R41   R(18,38)                1.07           estimate D2E/DX2                !
 ! R42   R(18,39)                1.07           estimate D2E/DX2                !
 ! R43   R(19,40)                1.0            estimate D2E/DX2                !
 ! R44   R(19,41)                1.0            estimate D2E/DX2                !
 ! R45   R(20,42)                1.07           estimate D2E/DX2                !
 ! R46   R(20,43)                1.07           estimate D2E/DX2                !
 ! A1    A(2,1,21)             109.4712         estimate D2E/DX2                !
 ! A2    A(1,2,3)              114.5599         estimate D2E/DX2                !
 ! A3    A(1,2,6)              111.427          estimate D2E/DX2                !
 ! A4    A(1,2,12)             107.9834         estimate D2E/DX2                !
 ! A5    A(3,2,6)               99.6031         estimate D2E/DX2                !
 ! A6    A(3,2,12)             110.0882         estimate D2E/DX2                !
 ! A7    A(6,2,12)             113.144          estimate D2E/DX2                !
 ! A8    A(2,3,4)              107.234          estimate D2E/DX2                !
 ! A9    A(2,3,20)             126.1609         estimate D2E/DX2                !
 ! A10   A(4,3,20)             126.5202         estimate D2E/DX2                !
 ! A11   A(3,4,5)              102.3337         estimate D2E/DX2                !
 ! A12   A(3,4,22)             115.1679         estimate D2E/DX2                !
 ! A13   A(3,4,23)             107.8535         estimate D2E/DX2                !
 ! A14   A(5,4,22)             108.7269         estimate D2E/DX2                !
 ! A15   A(5,4,23)             114.2585         estimate D2E/DX2                !
 ! A16   A(22,4,23)            108.585          estimate D2E/DX2                !
 ! A17   A(4,5,6)              101.9938         estimate D2E/DX2                !
 ! A18   A(4,5,7)              112.9695         estimate D2E/DX2                !
 ! A19   A(4,5,10)             110.0971         estimate D2E/DX2                !
 ! A20   A(6,5,7)              119.1553         estimate D2E/DX2                !
 ! A21   A(6,5,10)             110.4372         estimate D2E/DX2                !
 ! A22   A(7,5,10)             102.2671         estimate D2E/DX2                !
 ! A23   A(2,6,5)              100.013          estimate D2E/DX2                !
 ! A24   A(2,6,24)             111.0654         estimate D2E/DX2                !
 ! A25   A(2,6,25)             113.2798         estimate D2E/DX2                !
 ! A26   A(5,6,24)             110.7348         estimate D2E/DX2                !
 ! A27   A(5,6,25)             113.6107         estimate D2E/DX2                !
 ! A28   A(24,6,25)            108.0374         estimate D2E/DX2                !
 ! A29   A(5,7,8)              100.9079         estimate D2E/DX2                !
 ! A30   A(5,7,18)             112.6094         estimate D2E/DX2                !
 ! A31   A(5,7,26)             111.2074         estimate D2E/DX2                !
 ! A32   A(8,7,18)             114.4303         estimate D2E/DX2                !
 ! A33   A(8,7,26)             109.4875         estimate D2E/DX2                !
 ! A34   A(18,7,26)            108.0963         estimate D2E/DX2                !
 ! A35   A(7,8,9)              106.9453         estimate D2E/DX2                !
 ! A36   A(7,8,16)             130.7377         estimate D2E/DX2                !
 ! A37   A(9,8,16)             122.317          estimate D2E/DX2                !
 ! A38   A(8,9,10)             106.7715         estimate D2E/DX2                !
 ! A39   A(8,9,13)             122.3936         estimate D2E/DX2                !
 ! A40   A(10,9,13)            130.8335         estimate D2E/DX2                !
 ! A41   A(5,10,9)             101.446          estimate D2E/DX2                !
 ! A42   A(5,10,11)            110.6227         estimate D2E/DX2                !
 ! A43   A(5,10,27)            111.4263         estimate D2E/DX2                !
 ! A44   A(9,10,11)            114.1129         estimate D2E/DX2                !
 ! A45   A(9,10,27)            110.0395         estimate D2E/DX2                !
 ! A46   A(11,10,27)           109.0568         estimate D2E/DX2                !
 ! A47   A(10,11,12)           108.5768         estimate D2E/DX2                !
 ! A48   A(10,11,28)           108.8097         estimate D2E/DX2                !
 ! A49   A(10,11,29)           110.627          estimate D2E/DX2                !
 ! A50   A(12,11,28)           108.7586         estimate D2E/DX2                !
 ! A51   A(12,11,29)           110.678          estimate D2E/DX2                !
 ! A52   A(28,11,29)           109.3451         estimate D2E/DX2                !
 ! A53   A(2,12,11)            107.731          estimate D2E/DX2                !
 ! A54   A(2,12,30)            109.405          estimate D2E/DX2                !
 ! A55   A(2,12,31)            110.532          estimate D2E/DX2                !
 ! A56   A(11,12,30)           111.1038         estimate D2E/DX2                !
 ! A57   A(11,12,31)           108.8319         estimate D2E/DX2                !
 ! A58   A(30,12,31)           109.2285         estimate D2E/DX2                !
 ! A59   A(9,13,14)            117.1637         estimate D2E/DX2                !
 ! A60   A(9,13,32)            121.4182         estimate D2E/DX2                !
 ! A61   A(14,13,32)           121.4181         estimate D2E/DX2                !
 ! A62   A(13,14,15)           120.4625         estimate D2E/DX2                !
 ! A63   A(13,14,33)           119.7688         estimate D2E/DX2                !
 ! A64   A(15,14,33)           119.7688         estimate D2E/DX2                !
 ! A65   A(14,15,16)           120.4742         estimate D2E/DX2                !
 ! A66   A(14,15,34)           119.7629         estimate D2E/DX2                !
 ! A67   A(16,15,34)           119.7629         estimate D2E/DX2                !
 ! A68   A(8,16,15)            117.1886         estimate D2E/DX2                !
 ! A69   A(8,16,17)            121.4057         estimate D2E/DX2                !
 ! A70   A(15,16,17)           121.4057         estimate D2E/DX2                !
 ! A71   A(16,17,35)           109.4712         estimate D2E/DX2                !
 ! A72   A(16,17,36)           109.4712         estimate D2E/DX2                !
 ! A73   A(16,17,37)           109.4712         estimate D2E/DX2                !
 ! A74   A(35,17,36)           109.4712         estimate D2E/DX2                !
 ! A75   A(35,17,37)           109.4712         estimate D2E/DX2                !
 ! A76   A(36,17,37)           109.4712         estimate D2E/DX2                !
 ! A77   A(7,18,19)            109.4712         estimate D2E/DX2                !
 ! A78   A(7,18,38)            109.4712         estimate D2E/DX2                !
 ! A79   A(7,18,39)            109.4712         estimate D2E/DX2                !
 ! A80   A(19,18,38)           109.4712         estimate D2E/DX2                !
 ! A81   A(19,18,39)           109.4712         estimate D2E/DX2                !
 ! A82   A(38,18,39)           109.4712         estimate D2E/DX2                !
 ! A83   A(18,19,40)           109.4712         estimate D2E/DX2                !
 ! A84   A(18,19,41)           109.4712         estimate D2E/DX2                !
 ! A85   A(40,19,41)           109.4712         estimate D2E/DX2                !
 ! A86   A(3,20,42)            120.0            estimate D2E/DX2                !
 ! A87   A(3,20,43)            120.0            estimate D2E/DX2                !
 ! A88   A(42,20,43)           120.0            estimate D2E/DX2                !
 ! D1    D(21,1,2,3)           176.3532         estimate D2E/DX2                !
 ! D2    D(21,1,2,6)            64.2438         estimate D2E/DX2                !
 ! D3    D(21,1,2,12)          -60.5971         estimate D2E/DX2                !
 ! D4    D(1,2,3,4)           -149.4504         estimate D2E/DX2                !
 ! D5    D(1,2,3,20)            27.3645         estimate D2E/DX2                !
 ! D6    D(6,2,3,4)            -30.4587         estimate D2E/DX2                !
 ! D7    D(6,2,3,20)           146.3562         estimate D2E/DX2                !
 ! D8    D(12,2,3,4)            88.6408         estimate D2E/DX2                !
 ! D9    D(12,2,3,20)          -94.5443         estimate D2E/DX2                !
 ! D10   D(1,2,6,5)            171.6173         estimate D2E/DX2                !
 ! D11   D(1,2,6,24)            54.6634         estimate D2E/DX2                !
 ! D12   D(1,2,6,25)           -67.1357         estimate D2E/DX2                !
 ! D13   D(3,2,6,5)             50.3354         estimate D2E/DX2                !
 ! D14   D(3,2,6,24)           -66.6185         estimate D2E/DX2                !
 ! D15   D(3,2,6,25)           171.5824         estimate D2E/DX2                !
 ! D16   D(12,2,6,5)           -66.4826         estimate D2E/DX2                !
 ! D17   D(12,2,6,24)          176.5636         estimate D2E/DX2                !
 ! D18   D(12,2,6,25)           54.7645         estimate D2E/DX2                !
 ! D19   D(1,2,12,11)         -172.8445         estimate D2E/DX2                !
 ! D20   D(1,2,12,30)           66.2641         estimate D2E/DX2                !
 ! D21   D(1,2,12,31)          -54.0528         estimate D2E/DX2                !
 ! D22   D(3,2,12,11)          -47.1114         estimate D2E/DX2                !
 ! D23   D(3,2,12,30)         -168.0027         estimate D2E/DX2                !
 ! D24   D(3,2,12,31)           71.6803         estimate D2E/DX2                !
 ! D25   D(6,2,12,11)           63.3452         estimate D2E/DX2                !
 ! D26   D(6,2,12,30)          -57.5461         estimate D2E/DX2                !
 ! D27   D(6,2,12,31)         -177.8631         estimate D2E/DX2                !
 ! D28   D(2,3,4,5)              0.1289         estimate D2E/DX2                !
 ! D29   D(2,3,4,22)          -117.6366         estimate D2E/DX2                !
 ! D30   D(2,3,4,23)           120.9437         estimate D2E/DX2                !
 ! D31   D(20,3,4,5)          -176.6713         estimate D2E/DX2                !
 ! D32   D(20,3,4,22)           65.5632         estimate D2E/DX2                !
 ! D33   D(20,3,4,23)          -55.8565         estimate D2E/DX2                !
 ! D34   D(2,3,20,42)         -178.107          estimate D2E/DX2                !
 ! D35   D(2,3,20,43)            1.8931         estimate D2E/DX2                !
 ! D36   D(4,3,20,42)           -1.8931         estimate D2E/DX2                !
 ! D37   D(4,3,20,43)          178.1069         estimate D2E/DX2                !
 ! D38   D(3,4,5,6)             31.5992         estimate D2E/DX2                !
 ! D39   D(3,4,5,7)            160.722          estimate D2E/DX2                !
 ! D40   D(3,4,5,10)           -85.6492         estimate D2E/DX2                !
 ! D41   D(22,4,5,6)           153.8602         estimate D2E/DX2                !
 ! D42   D(22,4,5,7)           -77.017          estimate D2E/DX2                !
 ! D43   D(22,4,5,10)           36.6118         estimate D2E/DX2                !
 ! D44   D(23,4,5,6)           -84.6807         estimate D2E/DX2                !
 ! D45   D(23,4,5,7)            44.4421         estimate D2E/DX2                !
 ! D46   D(23,4,5,10)          158.0709         estimate D2E/DX2                !
 ! D47   D(4,5,6,2)            -51.3426         estimate D2E/DX2                !
 ! D48   D(4,5,6,24)            65.8582         estimate D2E/DX2                !
 ! D49   D(4,5,6,25)          -172.352          estimate D2E/DX2                !
 ! D50   D(7,5,6,2)           -176.4662         estimate D2E/DX2                !
 ! D51   D(7,5,6,24)           -59.2653         estimate D2E/DX2                !
 ! D52   D(7,5,6,25)            62.5244         estimate D2E/DX2                !
 ! D53   D(10,5,6,2)            65.6607         estimate D2E/DX2                !
 ! D54   D(10,5,6,24)         -177.1385         estimate D2E/DX2                !
 ! D55   D(10,5,6,25)          -55.3487         estimate D2E/DX2                !
 ! D56   D(4,5,7,8)             73.966          estimate D2E/DX2                !
 ! D57   D(4,5,7,18)           -48.4808         estimate D2E/DX2                !
 ! D58   D(4,5,7,26)          -169.9815         estimate D2E/DX2                !
 ! D59   D(6,5,7,8)           -166.3714         estimate D2E/DX2                !
 ! D60   D(6,5,7,18)            71.1818         estimate D2E/DX2                !
 ! D61   D(6,5,7,26)           -50.3189         estimate D2E/DX2                !
 ! D62   D(10,5,7,8)           -44.3336         estimate D2E/DX2                !
 ! D63   D(10,5,7,18)         -166.7804         estimate D2E/DX2                !
 ! D64   D(10,5,7,26)           71.7189         estimate D2E/DX2                !
 ! D65   D(4,5,10,9)           -76.15           estimate D2E/DX2                !
 ! D66   D(4,5,10,11)           45.2869         estimate D2E/DX2                !
 ! D67   D(4,5,10,27)          166.783          estimate D2E/DX2                !
 ! D68   D(6,5,10,9)           171.9809         estimate D2E/DX2                !
 ! D69   D(6,5,10,11)          -66.5822         estimate D2E/DX2                !
 ! D70   D(6,5,10,27)           54.9139         estimate D2E/DX2                !
 ! D71   D(7,5,10,9)            44.1687         estimate D2E/DX2                !
 ! D72   D(7,5,10,11)          165.6056         estimate D2E/DX2                !
 ! D73   D(7,5,10,27)          -72.8983         estimate D2E/DX2                !
 ! D74   D(5,7,8,9)             27.5408         estimate D2E/DX2                !
 ! D75   D(5,7,8,16)          -152.3732         estimate D2E/DX2                !
 ! D76   D(18,7,8,9)           148.7098         estimate D2E/DX2                !
 ! D77   D(18,7,8,16)          -31.2043         estimate D2E/DX2                !
 ! D78   D(26,7,8,9)           -89.7807         estimate D2E/DX2                !
 ! D79   D(26,7,8,16)           90.3053         estimate D2E/DX2                !
 ! D80   D(5,7,18,19)          -62.9256         estimate D2E/DX2                !
 ! D81   D(5,7,18,38)          177.0744         estimate D2E/DX2                !
 ! D82   D(5,7,18,39)           57.0744         estimate D2E/DX2                !
 ! D83   D(8,7,18,19)         -177.402          estimate D2E/DX2                !
 ! D84   D(8,7,18,38)           62.598          estimate D2E/DX2                !
 ! D85   D(8,7,18,39)          -57.402          estimate D2E/DX2                !
 ! D86   D(26,7,18,19)          60.3276         estimate D2E/DX2                !
 ! D87   D(26,7,18,38)         -59.6724         estimate D2E/DX2                !
 ! D88   D(26,7,18,39)        -179.6724         estimate D2E/DX2                !
 ! D89   D(7,8,9,10)            -0.5451         estimate D2E/DX2                !
 ! D90   D(7,8,9,13)           179.8477         estimate D2E/DX2                !
 ! D91   D(16,8,9,10)          179.3778         estimate D2E/DX2                !
 ! D92   D(16,8,9,13)           -0.2294         estimate D2E/DX2                !
 ! D93   D(7,8,16,15)         -179.8854         estimate D2E/DX2                !
 ! D94   D(7,8,16,17)            0.096          estimate D2E/DX2                !
 ! D95   D(9,8,16,15)            0.2119         estimate D2E/DX2                !
 ! D96   D(9,8,16,17)         -179.8067         estimate D2E/DX2                !
 ! D97   D(8,9,10,5)           -26.9164         estimate D2E/DX2                !
 ! D98   D(8,9,10,11)         -145.8854         estimate D2E/DX2                !
 ! D99   D(8,9,10,27)           91.1561         estimate D2E/DX2                !
 ! D100  D(13,9,10,5)          152.6453         estimate D2E/DX2                !
 ! D101  D(13,9,10,11)          33.6762         estimate D2E/DX2                !
 ! D102  D(13,9,10,27)         -89.2822         estimate D2E/DX2                !
 ! D103  D(8,9,13,14)            0.0704         estimate D2E/DX2                !
 ! D104  D(8,9,13,32)         -179.9517         estimate D2E/DX2                !
 ! D105  D(10,9,13,14)        -179.4325         estimate D2E/DX2                !
 ! D106  D(10,9,13,32)           0.5454         estimate D2E/DX2                !
 ! D107  D(5,10,11,12)          57.2538         estimate D2E/DX2                !
 ! D108  D(5,10,11,28)         -60.9673         estimate D2E/DX2                !
 ! D109  D(5,10,11,29)         178.8917         estimate D2E/DX2                !
 ! D110  D(9,10,11,12)         170.8783         estimate D2E/DX2                !
 ! D111  D(9,10,11,28)          52.6572         estimate D2E/DX2                !
 ! D112  D(9,10,11,29)         -67.4838         estimate D2E/DX2                !
 ! D113  D(27,10,11,12)        -65.6305         estimate D2E/DX2                !
 ! D114  D(27,10,11,28)        176.1484         estimate D2E/DX2                !
 ! D115  D(27,10,11,29)         56.0074         estimate D2E/DX2                !
 ! D116  D(10,11,12,2)         -54.5181         estimate D2E/DX2                !
 ! D117  D(10,11,12,30)         65.3029         estimate D2E/DX2                !
 ! D118  D(10,11,12,31)       -174.3921         estimate D2E/DX2                !
 ! D119  D(28,11,12,2)          63.7354         estimate D2E/DX2                !
 ! D120  D(28,11,12,30)       -176.4437         estimate D2E/DX2                !
 ! D121  D(28,11,12,31)        -56.1386         estimate D2E/DX2                !
 ! D122  D(29,11,12,2)        -176.1248         estimate D2E/DX2                !
 ! D123  D(29,11,12,30)        -56.3038         estimate D2E/DX2                !
 ! D124  D(29,11,12,31)         64.0012         estimate D2E/DX2                !
 ! D125  D(9,13,14,15)           0.0806         estimate D2E/DX2                !
 ! D126  D(9,13,14,33)        -179.9358         estimate D2E/DX2                !
 ! D127  D(32,13,14,15)       -179.8973         estimate D2E/DX2                !
 ! D128  D(32,13,14,33)          0.0864         estimate D2E/DX2                !
 ! D129  D(13,14,15,16)         -0.0897         estimate D2E/DX2                !
 ! D130  D(13,14,15,34)        179.9133         estimate D2E/DX2                !
 ! D131  D(33,14,15,16)        179.9267         estimate D2E/DX2                !
 ! D132  D(33,14,15,34)         -0.0704         estimate D2E/DX2                !
 ! D133  D(14,15,16,8)          -0.0582         estimate D2E/DX2                !
 ! D134  D(14,15,16,17)        179.9605         estimate D2E/DX2                !
 ! D135  D(34,15,16,8)         179.9389         estimate D2E/DX2                !
 ! D136  D(34,15,16,17)         -0.0425         estimate D2E/DX2                !
 ! D137  D(8,16,17,35)        -149.9903         estimate D2E/DX2                !
 ! D138  D(8,16,17,36)         -29.9903         estimate D2E/DX2                !
 ! D139  D(8,16,17,37)          90.0097         estimate D2E/DX2                !
 ! D140  D(15,16,17,35)         29.9903         estimate D2E/DX2                !
 ! D141  D(15,16,17,36)        149.9903         estimate D2E/DX2                !
 ! D142  D(15,16,17,37)        -90.0097         estimate D2E/DX2                !
 ! D143  D(7,18,19,40)         180.0            estimate D2E/DX2                !
 ! D144  D(7,18,19,41)         -60.0            estimate D2E/DX2                !
 ! D145  D(38,18,19,40)        -60.0            estimate D2E/DX2                !
 ! D146  D(38,18,19,41)         60.0            estimate D2E/DX2                !
 ! D147  D(39,18,19,40)         60.0            estimate D2E/DX2                !
 ! D148  D(39,18,19,41)        180.0            estimate D2E/DX2                !
 --------------------------------------------------------------------------------
 Trust Radius=3.00D-01 FncErr=1.00D-07 GrdErr=1.00D-06 EigMax=2.50D+02 EigMin=1.00D-04
 Number of steps in this run=    258 maximum allowed number of steps=    258.
 GradGradGradGradGradGradGradGradGradGradGradGradGradGradGradGradGradGrad

 Leave Link  103 at Thu Jul 27 00:31:47 2023, MaxMem=   104857600 cpu:               0.0 elap:               0.0
 (Enter /private/chem/g16E03/g16/l202.exe)
                          Input orientation:                          
 ---------------------------------------------------------------------
 Center     Atomic      Atomic             Coordinates (Angstroms)
 Number     Number       Type             X           Y           Z
 ---------------------------------------------------------------------
      1          8           0        0.000000    0.000000    0.000000
      2          6           0        0.000000    0.000000    1.430000
      3          6           0        1.390325    0.000000    2.065364
      4          6           0        1.277202   -0.758438    3.426519
      5          6           0       -0.234647   -1.153428    3.463995
      6          6           0       -0.545700   -1.343266    1.998991
      7          6           0       -0.533760   -2.305615    4.454101
      8          6           0       -0.412484   -1.571098    5.800864
      9          6           0       -0.757249   -0.122093    5.544925
     10          6           0       -1.068470    0.001461    4.044909
     11          6           0       -0.647699    1.329021    3.429653
     12          6           0       -0.801939    1.232535    1.907311
     13          6           0       -0.752030    0.802168    6.520145
     14          6           0       -0.371474    0.324992    7.945824
     15          6           0       -0.054361   -0.994260    8.178839
     16          6           0       -0.074637   -2.024667    7.019814
     17          6           0        0.277144   -3.505220    7.256060
     18          6           0        0.430895   -3.494485    4.287880
     19          7           0        0.267093   -4.074667    2.947188
     20          6           0        2.521505    0.502921    1.513939
     21          1           0       -0.903264   -0.057569   -0.320000
     22          1           0        1.500871   -0.172854    4.293678
     23          1           0        1.948460   -1.591091    3.394872
     24          1           0       -0.005209   -2.176984    1.601897
     25          1           0       -1.585437   -1.496365    1.797973
     26          1           0       -1.532980   -2.669145    4.334490
     27          1           0       -2.114251   -0.146954    3.873983
     28          1           0        0.382073    1.505360    3.660683
     29          1           0       -1.240593    2.129900    3.819486
     30          1           0       -1.829113    1.117248    1.630684
     31          1           0       -0.415704    2.126356    1.463683
     32          1           0       -0.999552    1.824016    6.321496
     33          1           0       -0.355008    1.026078    8.753975
     34          1           0        0.207931   -1.311027    9.166645
     35          1           0        0.009178   -3.780527    8.254709
     36          1           0       -0.261558   -4.115073    6.561237
     37          1           0        1.328233   -3.648756    7.116377
     38          1           0        0.212670   -4.236883    5.026881
     39          1           0        1.438597   -3.155809    4.409267
     40          1           0        0.893492   -4.846660    2.839252
     41          1           0       -0.674685   -4.391187    2.833742
     42          1           0        3.452277    0.423090    2.035659
     43          1           0        2.483858    0.979835    0.556842
 ---------------------------------------------------------------------
                    Distance matrix (angstroms):
                    1          2          3          4          5
     1  O    0.000000
     2  C    1.430000   0.000000
     3  C    2.489726   1.528624   0.000000
     4  C    3.734636   2.488486   1.562295   0.000000
     5  C    3.658513   2.350019   2.434563   1.563045   0.000000
     6  C    2.469437   1.557531   2.357322   2.388061   1.509645
     7  C    5.043786   3.840045   3.837190   2.594083   1.548326
     8  C    6.023995   4.662933   4.435361   3.025387   2.380553
     9  C    5.597725   4.185802   4.090761   3.005257   2.380554
    10  C    4.183649   2.824780   3.156624   2.542053   1.538341
    11  C    3.734746   2.486850   2.789466   2.839496   2.516813
    12  C    2.408336   1.545986   2.519949   3.254964   2.904807
    13  C    6.612209   5.207552   5.007817   4.015445   3.664983
    14  C    7.961139   6.534491   6.147306   4.931133   4.721360
    15  C    8.239230   6.821901   6.360051   4.940974   4.720974
    16  C    7.306342   5.945660   5.549051   4.042595   3.664494
    17  C    8.063112   6.804877   6.361529   4.817708   4.491393
    18  C    5.548244   4.534818   4.251059   2.990674   2.569490
    19  N    5.035888   4.356158   4.317659   3.499637   3.008732
    20  C    2.983778   2.572540   1.355200   2.607159   3.760663
    21  H    0.960000   1.970203   3.309657   4.391134   3.995819
    22  H    4.551721   3.237768   2.237740   1.070000   2.159148
    23  H    4.225307   3.191988   2.147248   1.070000   2.227618
    24  H    2.702843   2.183767   2.627086   2.643123   2.137221
    25  H    2.825850   2.210910   3.341522   3.375116   2.172065
    26  H    5.316217   4.232070   4.562781   3.517433   2.177344
    27  H    4.415812   3.234920   3.946486   3.475067   2.171174
    28  H    3.976517   2.718094   2.414068   2.445581   2.736455
    29  H    4.545769   3.432956   3.812499   3.851780   3.452325
    30  H    2.693145   2.152713   3.435400   4.048755   3.325556
    31  H    2.614683   2.166872   2.853971   3.878233   3.845909
    32  H    6.654882   5.315343   5.210874   4.498174   4.197091
    33  H    8.821051   7.404017   6.988314   5.850674   5.722641
    34  H    9.262258   7.849695   7.317448   5.864959   5.721970
    35  H    9.079245   7.801866   7.382949   5.835437   5.469190
    36  H    7.749327   6.582692   6.314699   4.843681   4.285438
    37  H    8.106815   6.885674   6.231373   4.687387   4.691391
    38  H    6.577685   5.561831   5.301758   3.974163   3.485742
    39  H    5.609842   4.572168   3.931328   2.596003   2.775394
    40  H    5.687688   5.125860   4.933139   4.147973   3.911900
    41  H    5.269517   4.659207   4.912961   4.166307   3.327751
    42  H    4.030028   3.530445   2.105120   2.839269   4.256637
    43  H    2.727582   2.809276   2.105120   3.565481   4.515819
                    6          7          8          9         10
     6  C    0.000000
     7  C    2.637010   0.000000
     8  C    3.811022   1.538828   0.000000
     9  C    3.756283   2.451043   1.511285   0.000000
    10  C    2.503470   2.403321   2.446760   1.536936   0.000000
    11  C    3.032873   3.777969   3.753486   2.567510   1.522500
    12  C    2.590138   4.367672   4.813708   3.881913   2.481111
    13  C    5.008622   3.738248   2.503008   1.343630   2.620698
    14  C    6.178856   4.374764   2.863161   2.472453   3.975879
    15  C    6.209166   3.977832   2.473006   2.862207   4.371413
    16  C    5.088701   2.621567   1.343766   2.502208   3.734027
    17  C    5.743509   3.153980   2.516746   3.929822   4.941556
    18  C    3.289452   1.540000   2.588402   3.790102   3.811662
    19  N    3.003375   2.457987   3.856572   4.839458   4.427589
    20  C    3.612677   5.085968   5.593529   5.233519   4.420995
    21  H    2.675554   5.289828   6.324287   5.867097   4.368434
    22  H    3.289971   2.951970   2.808491   2.582112   2.587235
    23  H    2.868926   2.791761   3.370942   3.755202   3.472843
    24  H    1.070000   2.903615   4.261958   4.509502   3.441577
    25  H    1.070000   2.969162   4.171874   4.076048   2.749447
    26  H    2.861333   1.070000   2.147433   2.924787   2.726125
    27  H    2.721601   2.737573   2.938889   2.152701   1.070000
    28  H    3.425880   3.998973   3.830964   2.738069   2.124481
    29  H    3.982456   4.536093   4.278903   2.877887   2.147253
    30  H    2.799451   4.622295   5.159888   4.243364   2.766232
    31  H    3.513080   5.347794   5.699326   4.672121   3.406467
    32  H    5.377891   4.556092   3.484609   2.109292   2.917071
    33  H    7.161003   5.442522   3.933127   3.431923   4.871773
    34  H    7.207238   4.873129   3.432352   3.932175   5.439118
    35  H    6.736627   4.112757   3.328773   4.616760   5.760830
    36  H    5.345815   2.790745   2.659466   4.149999   4.891714
    37  H    5.917310   3.515503   3.012861   4.388171   5.338743
    38  H    4.256321   2.148263   2.845396   4.259180   4.535322
    39  H    3.610011   2.148263   2.806127   3.913424   4.048024
    40  H    3.879573   3.331921   4.605000   5.689213   5.367233
    41  H    3.162794   2.644813   4.101885   5.057913   4.573548
    42  H    4.370947   5.402146   5.752384   5.507475   4.965079
    43  H    4.081032   5.923583   6.511207   6.049793   5.073743
                   11         12         13         14         15
    11  C    0.000000
    12  C    1.533175   0.000000
    13  C    3.136814   4.633136   0.000000
    14  C    4.634671   6.121485   1.550832   0.000000
    15  C    5.320193   6.696981   2.542669   1.376693   0.000000
    16  C    4.946198   6.105409   2.949496   2.542932   1.550963
    17  C    6.234309   7.226330   4.489361   3.945504   2.695615
    18  C    5.016585   5.434308   4.984330   5.349089   4.650393
    19  N    5.501769   5.512764   6.130919   6.689629   6.079673
    20  C    3.794239   3.425253   5.988963   7.054795   7.300516
    21  H    4.005976   2.575956   6.895622   8.291743   8.592339
    22  H    2.760167   3.601777   3.314120   4.134211   4.264731
    23  H    3.907468   4.213121   4.773643   5.455698   5.220521
    24  H    4.005690   3.514666   5.798470   6.829308   6.682620
    25  H    3.394781   2.841253   5.317587   6.525881   6.581167
    26  H    4.193779   4.652818   4.175762   4.832772   4.446411
    27  H    2.127606   2.737326   3.123884   4.454200   4.846943
    28  H    1.070000   2.133221   3.155502   4.508163   5.181921
    29  H    1.070000   2.157335   3.048791   4.586908   5.492857
    30  H    2.162609   1.070000   5.016593   6.529424   7.105388
    31  H    2.134152   1.070000   5.237786   6.727929   7.413645
    32  H    2.954924   4.458019   1.070000   2.297824   3.505109
    33  H    5.340959   6.864341   2.279859   1.070000   2.122012
    34  H    6.372993   7.758059   3.520097   2.121950   1.070000
    35  H    7.058337   8.128847   4.958754   4.134681   2.788024
    36  H    6.292383   7.109708   4.941813   4.652241   3.521228
    37  H    6.501884   7.449765   4.949112   4.400870   3.175963
    38  H    5.854115   6.377749   5.343457   5.447216   4.529984
    39  H    5.042417   5.526061   4.992017   5.282004   4.594659
    40  H    6.392408   6.379625   6.940172   7.377209   6.652113
    41  H    5.751227   5.700939   6.369183   6.961872   6.363488
    42  H    4.424221   4.332439   6.158775   7.039939   7.214156
    43  H    4.263992   3.561473   6.787012   7.948510   8.272512
                   16         17         18         19         20
    16  C    0.000000
    17  C    1.540000   0.000000
    18  C    3.143150   2.972178   0.000000
    19  N    4.572261   4.346349   1.470000   0.000000
    20  C    6.591154   7.353523   5.295720   5.300084   0.000000
    21  H    7.643885   8.406922   5.901265   5.308609   3.925115
    22  H    3.652842   4.623621   3.489715   4.308061   3.037320
    23  H    4.173862   4.622332   2.592947   3.032419   2.872486
    24  H    5.420502   5.814936   3.023326   2.342041   3.684280
    25  H    5.461616   6.106997   3.775939   3.376418   4.576549
    26  H    3.122993   3.537109   2.130765   2.672146   5.869953
    27  H    4.193100   5.332463   4.225522   4.685796   5.242364
    28  H    4.894224   6.167953   5.039266   5.626633   3.192266
    29  H    5.372335   6.772602   5.886167   6.444429   4.702764
    30  H    6.480165   7.579471   5.782422   5.751804   4.395328
    31  H    6.943912   8.108410   6.347178   6.412463   3.356376
    32  H    4.019387   5.559147   5.870964   6.912655   6.103748
    33  H    3.520364   4.814148   6.403056   7.753927   7.808081
    34  H    2.279914   2.910260   5.349724   6.806090   8.197984
    35  H    2.148263   1.070000   3.999424   5.321919   8.372436
    36  H    2.148263   1.070000   2.456170   3.652733   7.385562
    37  H    2.148263   1.070000   2.971432   4.323142   7.074435
    38  H    2.991360   2.347068   1.070000   2.086720   6.335395
    39  H    3.222470   3.094396   1.070000   2.086720   4.789772
    40  H    5.135954   4.656988   2.034920   1.000000   5.746730
    41  H    4.845996   4.609535   2.034920   1.000000   5.992479
    42  H    6.578179   7.263998   5.435866   5.586242   1.070000
    43  H    7.572512   8.358518   6.176961   6.014631   1.070000
                   21         22         23         24         25
    21  H    0.000000
    22  H    5.203766   0.000000
    23  H    4.927909   1.737695   0.000000
    24  H    2.998685   3.678383   2.715668   0.000000
    25  H    2.649775   4.183960   3.879109   1.731707   0.000000
    26  H    5.374118   3.929043   3.763709   3.169127   2.795010
    27  H    4.366231   3.639495   4.338283   3.705598   2.531871
    28  H    4.465498   2.113952   3.480263   4.236537   4.043654
    29  H    4.694055   3.611531   4.918956   4.999312   4.165961
    30  H    2.458162   4.454738   4.971671   3.765557   2.630274
    31  H    2.861602   4.119284   4.810215   4.325083   3.821536
    32  H    6.903557   3.788357   5.377626   6.266684   5.641848
    33  H    9.154884   4.977547   6.393397   7.844372   7.500842
    34  H    9.633398   5.168456   6.035002   7.617134   7.586030
    35  H    9.392475   5.561493   5.672077   6.843351   7.032043
    36  H    8.014147   4.877404   4.613083   5.330755   5.594548
    37  H    8.554292   4.480996   4.297473   5.861200   6.434880
    38  H    6.877580   4.325896   3.560427   4.002645   4.601029
    39  H    6.119589   2.985842   1.933210   3.305148   4.326360
    40  H    6.012038   4.932416   3.467045   3.076667   4.295792
    41  H    5.364567   4.965761   3.877666   2.620750   3.206599
    42  H    4.975027   3.043318   2.857595   4.347729   5.396236
    43  H    3.649336   4.032233   3.866617   4.153686   4.922514
                   26         27         28         29         30
    26  H    0.000000
    27  H    2.628952   0.000000
    28  H    4.641974   3.001212   0.000000
    29  H    4.835447   2.439326   1.745942   0.000000
    30  H    4.662084   2.590734   3.026693   2.482473   0.000000
    31  H    5.699707   3.723244   2.418449   2.496049   1.744681
    32  H    4.941784   3.334306   3.015022   2.532138   4.815746
    33  H    5.879977   5.318389   5.168619   5.133407   7.274790
    34  H    5.312719   5.895750   6.186920   6.521527   8.175377
    35  H    4.356781   6.074748   7.013181   7.494416   8.440688
    36  H    2.943744   5.138072   6.357416   6.890240   7.358313
    37  H    4.109145   5.884423   6.277097   7.131705   7.923159
    38  H    2.446324   4.844714   5.904960   6.641213   6.661063
    39  H    3.012093   4.686413   4.837676   5.955218   6.054541
    40  H    3.586792   5.674895   6.425298   7.361221   6.666440
    41  H    2.440152   4.600865   6.047299   6.619404   5.755250
    42  H    6.300739   5.889874   3.638429   5.302666   5.342185
    43  H    6.612160   5.780631   3.785170   5.083211   4.446768
                   31         32         33         34         35
    31  H    0.000000
    32  H    4.902106   0.000000
    33  H    7.373104   2.639904   0.000000
    34  H    8.458141   4.402429   2.439110   0.000000
    35  H    9.010539   6.013796   4.846168   2.639992   0.000000
    36  H    8.060041   5.989565   5.590015   3.856326   1.747303
    37  H    8.267175   6.000137   5.231548   3.305095   1.747303
    38  H    7.319976   6.315062   6.473967   5.069350   3.266274
    39  H    6.325833   5.865138   6.291397   5.248848   4.149811
    40  H    7.226973   7.759353   8.428034   7.280563   5.589796
    41  H    6.665020   7.134333   8.031071   7.097328   5.497950
    42  H    4.264920   6.336385   7.745630   8.023958   8.258444
    43  H    3.247204   6.788080   8.674923   9.195467   9.383083
                   36         37         38         39         40
    36  H    0.000000
    37  H    1.747303   0.000000
    38  H    1.610583   2.440568   0.000000
    39  H    2.905458   2.753838   1.747303   0.000000
    40  H    3.965165   4.462933   2.370879   2.370879   0.000000
    41  H    3.760470   4.785797   2.370879   2.911082   1.632993
    42  H    7.407317   6.848736   6.415435   4.743146   5.912986
    43  H    8.339554   8.110908   7.235585   5.747808   6.456524
                   41         42         43
    41  H    0.000000
    42  H    6.391088   0.000000
    43  H    6.633893   1.853294   0.000000
 Stoichiometry    C18H23NO
 Framework group  C1[X(C18H23NO)]
 Deg. of freedom   123
 Full point group                 C1      NOp   1
 Largest Abelian subgroup         C1      NOp   1
 Largest concise Abelian subgroup C1      NOp   1
                         Standard orientation:                         
 ---------------------------------------------------------------------
 Center     Atomic      Atomic             Coordinates (Angstroms)
 Number     Number       Type             X           Y           Z
 ---------------------------------------------------------------------
      1          8           0       -4.156720    0.220938   -0.404785
      2          6           0       -2.791175   -0.161078   -0.219719
      3          6           0       -2.300309   -0.084467    1.225920
      4          6           0       -0.774997    0.250276    1.179701
      5          6           0       -0.500688    0.346534   -0.356073
      6          6           0       -1.819653    0.862607   -0.878595
      7          6           0        0.797980    1.120416   -0.690559
      8          6           0        1.864666    0.086369   -0.289409
      9          6           0        1.236166   -1.278882   -0.447711
     10          6           0       -0.205504   -1.050338   -0.928880
     11          6           0       -1.206321   -2.068922   -0.400810
     12          6           0       -2.619704   -1.598171   -0.763258
     13          6           0        1.903669   -2.413967   -0.180575
     14          6           0        3.369325   -2.275406    0.307006
     15          6           0        3.941272   -1.031836    0.454290
     16          6           0        3.129745    0.250228    0.133005
     17          6           0        3.747842    1.651867    0.291003
     18          6           0        0.897577    2.461873    0.059223
     19          7           0       -0.203740    3.340573   -0.360166
     20          6           0       -3.064429   -0.213109    2.337738
     21          1           0       -4.370623    0.200910   -1.340437
     22          1           0       -0.132397   -0.496430    1.597308
     23          1           0       -0.623929    1.166380    1.711522
     24          1           0       -2.006359    1.854176   -0.522461
     25          1           0       -1.881346    0.877101   -1.946717
     26          1           0        0.870599    1.319668   -1.739332
     27          1           0       -0.239294   -1.049391   -1.998346
     28          1           0       -1.121758   -2.115213    0.664838
     29          1           0       -1.012825   -3.036730   -0.814098
     30          1           0       -2.765418   -1.597070   -1.823290
     31          1           0       -3.330176   -2.257875   -0.310577
     32          1           0        1.443473   -3.372678   -0.298867
     33          1           0        3.939935   -3.152469    0.530757
     34          1           0        4.952945   -0.949199    0.792799
     35          1           0        4.802246    1.598381    0.117013
     36          1           0        3.302979    2.319704   -0.416803
     37          1           0        3.567759    2.011380    1.282577
     38          1           0        1.832967    2.929007   -0.168225
     39          1           0        0.833027    2.287192    1.112893
     40          1           0       -0.139066    4.211649    0.126705
     41          1           0       -0.143413    3.503826   -1.344904
     42          1           0       -2.621045   -0.111946    3.306282
     43          1           0       -4.111124   -0.415842    2.247032
 ---------------------------------------------------------------------
 Rotational constants (GHZ):           0.5920371           0.2825299           0.2243539
 Leave Link  202 at Thu Jul 27 00:31:47 2023, MaxMem=   104857600 cpu:               0.0 elap:               0.0
 (Enter /private/chem/g16E03/g16/l301.exe)
 Standard basis: 6-31+G(d,p) (6D, 7F)
 Ernie: Thresh=  0.10000D-02 Tol=  0.10000D-05 Strict=F.
 There are   495 symmetry adapted cartesian basis functions of A   symmetry.
 There are   495 symmetry adapted basis functions of A   symmetry.
   495 basis functions,   801 primitive gaussians,   495 cartesian basis functions
    73 alpha electrons       73 beta electrons
       nuclear repulsion energy      1650.5037959495 Hartrees.
 IExCor= 4336 DFT=T Ex+Corr=M062X ExCW=0 ScaHFX=  0.540000
 ScaDFX=  1.000000  1.000000  1.000000  1.000000 ScalE2=  1.000000  1.000000
 IRadAn=      5 IRanWt=     -1 IRanGd=            0 ICorTp=0 IEmpDi=  4
 NAtoms=   43 NActive=   43 NUniq=   43 SFac= 1.00D+00 NAtFMM=   60 NAOKFM=F Big=F
 Integral buffers will be    131072 words long.
 Raffenetti 2 integral format.
 Two-electron integral symmetry is turned on.
 ------------------------------------------------------------------------------
 Polarizable Continuum Model (PCM)
 =================================
 Model                : PCM.
 Atomic radii         : SMD-Coulomb.
 Polarization charges : Total charges.
 Charge compensation  : None.
 Solution method      : On-the-fly selection.
 Cavity type          : VdW (van der Waals Surface) (Alpha=1.000).
 Cavity algorithm     : GePol (No added spheres)
                        Default sphere list used, NSphG=   43.
                        Lebedev-Laikov grids with approx.  5.0 points / Ang**2.
                        Smoothing algorithm: York/Karplus (Gamma=1.0000).
                        Polarization charges: spherical gaussians, with
                                              point-specific exponents (IZeta= 3).
                        Self-potential: point-specific (ISelfS= 7).
                        Self-field    : sphere-specific E.n sum rule (ISelfD= 2).
 1st derivatives      : Analytical E(r).r(x)/FMM algorithm (CHGder, D1EAlg=3).
                        Cavity 1st derivative terms included.
 Solvent              : Water, Eps=  78.355300 Eps(inf)=   1.777849
 ------------------------------------------------------------------------------
 GePol: Number of generator spheres                  =      43
 GePol: Total number of spheres                      =      43
 GePol: Number of exposed spheres                    =      43 (100.00%)
 GePol: Number of points                             =    2704
 GePol: Average weight of points                     =       0.11
 GePol: Minimum weight of points                     =   0.54D-10
 GePol: Maximum weight of points                     =    0.21991
 GePol: Number of points with low weight             =     157
 GePol: Fraction of low-weight points (<1% of avg)   =       5.81%
 GePol: Cavity surface area                          =    294.700 Ang**2
 GePol: Cavity volume                                =    286.560 Ang**3
 ------------------------------------------------------------------------------
 Atomic radii for non-electrostatic terms: SMD-CDS.
 ------------------------------------------------------------------------------
 PCM non-electrostatic energy =         0.0097100777 Hartrees.
 Nuclear repulsion after PCM non-electrostatic terms =     1650.5135060272 Hartrees.
 Leave Link  301 at Thu Jul 27 00:31:47 2023, MaxMem=   104857600 cpu:               0.1 elap:               0.1
 (Enter /private/chem/g16E03/g16/l302.exe)
 NPDir=0 NMtPBC=     1 NCelOv=     1 NCel=       1 NClECP=     1 NCelD=      1
         NCelK=      1 NCelE2=     1 NClLst=     1 CellRange=     0.0.
 One-electron integrals computed using PRISM.
 One-electron integral symmetry used in STVInt
 NBasis=   495 RedAO= T EigKep=  1.56D-06  NBF=   495
 NBsUse=   492 1.00D-06 EigRej=  7.77D-07 NBFU=   492
 Precomputing XC quadrature grid using
 IXCGrd= 4 IRadAn=           5 IRanWt=          -1 IRanGd=           0 AccXCQ= 0.00D+00.
 Generated NRdTot=       0 NPtTot=           0 NUsed=           0 NTot=          32
 NSgBfM=   494   494   494   494   494 MxSgAt=    43 MxSgA2=    43.
 Leave Link  302 at Thu Jul 27 00:31:50 2023, MaxMem=   104857600 cpu:               3.0 elap:               3.0
 (Enter /private/chem/g16E03/g16/l303.exe)
 DipDrv:  MaxL=1.
 Leave Link  303 at Thu Jul 27 00:31:50 2023, MaxMem=   104857600 cpu:               0.1 elap:               0.1
 (Enter /private/chem/g16E03/g16/l401.exe)
 ExpMin= 4.38D-02 ExpMax= 5.48D+03 ExpMxC= 8.25D+02 IAcc=3 IRadAn=         5 AccDes= 0.00D+00
 Harris functional with IExCor= 1009 and IRadAn=       5 diagonalized for initial guess.
 HarFok:  IExCor= 1009 AccDes= 0.00D+00 IRadAn=         5 IDoV= 1 UseB2=F ITyADJ=14
 ICtDFT=  3500011 ScaDFX=  1.000000  1.000000  1.000000  1.000000
 FoFCou: FMM=F IPFlag=           0 FMFlag=      100000 FMFlg1=           0
         NFxFlg=           0 DoJE=T BraDBF=F KetDBF=T FulRan=T
         wScrn=  0.000000 ICntrl=       500 IOpCl=  0 I1Cent=   200000004 NGrid=           0
         NMat0=    1 NMatS0=      1 NMatT0=    0 NMatD0=    1 NMtDS0=    0 NMtDT0=    0
 Petite list used in FoFCou.
 Harris En= -829.020552266803    
 JPrj=0 DoOrth=F DoCkMO=F.
 Leave Link  401 at Thu Jul 27 00:32:39 2023, MaxMem=   104857600 cpu:              48.9 elap:              49.0
 (Enter /private/chem/g16E03/g16/l502.exe)
 Integral symmetry usage will be decided dynamically.
 Closed shell SCF:
 Using DIIS extrapolation, IDIIS=  1040.
 NGot=   104857600 LenX=   104359441 LenY=   104113921
 Requested convergence on RMS density matrix=1.00D-08 within 128 cycles.
 Requested convergence on MAX density matrix=1.00D-06.
 Requested convergence on             energy=1.00D-06.
 No special actions if energy rises.
 Fock matrices will be formed incrementally for  20 cycles.

 Cycle   1  Pass 1  IDiag  1:
 FoFJK:  IHMeth= 1 ICntrl=       0 DoSepK=F KAlg= 0 I1Cent=           0 FoldK=F
 IRaf= 860000000 NMat=       1 IRICut=       1 DoRegI=T DoRafI=F ISym2E= 0 IDoP0=0 IntGTp=1.
 FoFCou: FMM=F IPFlag=           0 FMFlag=      100000 FMFlg1=           0
         NFxFlg=           0 DoJE=F BraDBF=F KetDBF=F FulRan=T
         wScrn=  0.000000 ICntrl=         0 IOpCl=  0 I1Cent=           0 NGrid=           0
         NMat0=    1 NMatS0=      1 NMatT0=    0 NMatD0=    1 NMtDS0=    0 NMtDT0=    0
 Symmetry not used in FoFCou.
 Inv3:  Mode=1 IEnd=    21934848.
 Iteration    1 A*A^-1 deviation from unit magnitude is 5.33D-15 for   2704.
 Iteration    1 A*A^-1 deviation from orthogonality  is 3.66D-15 for   2698   2138.
 Iteration    1 A^-1*A deviation from unit magnitude is 5.33D-15 for   2704.
 Iteration    1 A^-1*A deviation from orthogonality  is 2.29D-15 for   2701   2114.
 E= -828.892427382087    
 DIIS: error= 1.65D-02 at cycle   1 NSaved=   1.
 NSaved= 1 IEnMin= 1 EnMin= -828.892427382087     IErMin= 1 ErrMin= 1.65D-02
 ErrMax= 1.65D-02  0.00D+00 EMaxC= 1.00D-01 BMatC= 5.25D-01 BMatP= 5.25D-01
 IDIUse=3 WtCom= 8.35D-01 WtEn= 1.65D-01
 Coeff-Com:  0.100D+01
 Coeff-En:   0.100D+01
 Coeff:      0.100D+01
 Gap=     0.312 Goal=   None    Shift=    0.000
 GapD=    0.312 DampG=1.000 DampE=0.500 DampFc=0.5000 IDamp=-1.
 Damping current iteration by 5.00D-01
 RMSDP=3.58D-02 MaxDP=3.21D+00              OVMax= 1.41D-01

 Cycle   2  Pass 1  IDiag  1:
 RMSU=  1.75D-02    CP:  1.07D+00
 E= -829.149865879039     Delta-E=       -0.257438496952 Rises=F Damp=T
 DIIS: error= 8.74D-03 at cycle   2 NSaved=   2.
 NSaved= 2 IEnMin= 2 EnMin= -829.149865879039     IErMin= 2 ErrMin= 8.74D-03
 ErrMax= 8.74D-03  0.00D+00 EMaxC= 1.00D-01 BMatC= 4.23D-02 BMatP= 5.25D-01
 IDIUse=3 WtCom= 9.13D-01 WtEn= 8.74D-02
 Coeff-Com: -0.173D+00 0.117D+01
 Coeff-En:   0.000D+00 0.100D+01
 Coeff:     -0.158D+00 0.116D+01
 Gap=     0.314 Goal=   None    Shift=    0.000
 RMSDP=1.74D-02 MaxDP=1.96D+00 DE=-2.57D-01 OVMax= 6.84D-02

 Cycle   3  Pass 1  IDiag  1:
 RMSU=  1.06D-02    CP:  8.39D-01  7.10D-01
 E= -829.375065156711     Delta-E=       -0.225199277672 Rises=F Damp=F
 DIIS: error= 1.74D-03 at cycle   3 NSaved=   3.
 NSaved= 3 IEnMin= 3 EnMin= -829.375065156711     IErMin= 3 ErrMin= 1.74D-03
 ErrMax= 1.74D-03  0.00D+00 EMaxC= 1.00D-01 BMatC= 5.87D-03 BMatP= 4.23D-02
 IDIUse=3 WtCom= 9.83D-01 WtEn= 1.74D-02
 Coeff-Com: -0.855D-01 0.313D+00 0.773D+00
 Coeff-En:   0.000D+00 0.000D+00 0.100D+01
 Coeff:     -0.840D-01 0.307D+00 0.777D+00
 Gap=     0.307 Goal=   None    Shift=    0.000
 RMSDP=3.36D-03 MaxDP=3.24D-01 DE=-2.25D-01 OVMax= 1.55D-02

 Cycle   4  Pass 1  IDiag  1:
 RMSU=  2.64D-03    CP:  8.10D-01  7.38D-01  8.91D-01
 E= -829.378945359170     Delta-E=       -0.003880202459 Rises=F Damp=F
 DIIS: error= 7.67D-04 at cycle   4 NSaved=   4.
 NSaved= 4 IEnMin= 4 EnMin= -829.378945359170     IErMin= 4 ErrMin= 7.67D-04
 ErrMax= 7.67D-04  0.00D+00 EMaxC= 1.00D-01 BMatC= 1.19D-03 BMatP= 5.87D-03
 IDIUse=3 WtCom= 9.92D-01 WtEn= 7.67D-03
 Coeff-Com: -0.250D-01 0.641D-01 0.349D+00 0.612D+00
 Coeff-En:   0.000D+00 0.000D+00 0.102D+00 0.898D+00
 Coeff:     -0.248D-01 0.636D-01 0.347D+00 0.615D+00
 Gap=     0.303 Goal=   None    Shift=    0.000
 RMSDP=1.19D-03 MaxDP=8.58D-02 DE=-3.88D-03 OVMax= 6.78D-03

 Cycle   5  Pass 1  IDiag  1:
 RMSU=  5.04D-04    CP:  8.16D-01  7.32D-01  9.47D-01  6.89D-01
 E= -829.379988964988     Delta-E=       -0.001043605818 Rises=F Damp=F
 DIIS: error= 1.23D-04 at cycle   5 NSaved=   5.
 NSaved= 5 IEnMin= 5 EnMin= -829.379988964988     IErMin= 5 ErrMin= 1.23D-04
 ErrMax= 1.23D-04  0.00D+00 EMaxC= 1.00D-01 BMatC= 3.13D-05 BMatP= 1.19D-03
 IDIUse=3 WtCom= 9.99D-01 WtEn= 1.23D-03
 Coeff-Com: -0.477D-02 0.939D-02 0.881D-01 0.218D+00 0.689D+00
 Coeff-En:   0.000D+00 0.000D+00 0.000D+00 0.000D+00 0.100D+01
 Coeff:     -0.477D-02 0.938D-02 0.880D-01 0.218D+00 0.689D+00
 Gap=     0.302 Goal=   None    Shift=    0.000
 RMSDP=2.21D-04 MaxDP=2.96D-02 DE=-1.04D-03 OVMax= 2.00D-03

 Cycle   6  Pass 1  IDiag  1:
 RMSU=  1.75D-04    CP:  8.14D-01  7.31D-01  9.48D-01  7.09D-01  1.02D+00
 E= -829.380015620845     Delta-E=       -0.000026655857 Rises=F Damp=F
 DIIS: error= 4.69D-05 at cycle   6 NSaved=   6.
 NSaved= 6 IEnMin= 6 EnMin= -829.380015620845     IErMin= 6 ErrMin= 4.69D-05
 ErrMax= 4.69D-05  0.00D+00 EMaxC= 1.00D-01 BMatC= 4.47D-06 BMatP= 3.13D-05
 IDIUse=1 WtCom= 1.00D+00 WtEn= 0.00D+00
 Coeff-Com: -0.174D-03-0.664D-03 0.116D-01 0.500D-01 0.311D+00 0.628D+00
 Coeff:     -0.174D-03-0.664D-03 0.116D-01 0.500D-01 0.311D+00 0.628D+00
 Gap=     0.302 Goal=   None    Shift=    0.000
 RMSDP=1.35D-04 MaxDP=1.05D-02 DE=-2.67D-05 OVMax= 8.24D-04

 Cycle   7  Pass 1  IDiag  1:
 RMSU=  8.43D-05    CP:  8.13D-01  7.27D-01  9.50D-01  7.22D-01  1.01D+00
                    CP:  8.93D-01
 E= -829.380020181014     Delta-E=       -0.000004560168 Rises=F Damp=F
 DIIS: error= 1.39D-05 at cycle   7 NSaved=   7.
 NSaved= 7 IEnMin= 7 EnMin= -829.380020181014     IErMin= 7 ErrMin= 1.39D-05
 ErrMax= 1.39D-05  0.00D+00 EMaxC= 1.00D-01 BMatC= 3.60D-07 BMatP= 4.47D-06
 IDIUse=1 WtCom= 1.00D+00 WtEn= 0.00D+00
 Coeff-Com:  0.643D-03-0.167D-02-0.802D-02-0.112D-01 0.164D-01 0.222D+00
 Coeff-Com:  0.782D+00
 Coeff:      0.643D-03-0.167D-02-0.802D-02-0.112D-01 0.164D-01 0.222D+00
 Coeff:      0.782D+00
 Gap=     0.302 Goal=   None    Shift=    0.000
 RMSDP=2.99D-05 MaxDP=2.39D-03 DE=-4.56D-06 OVMax= 2.48D-04

 Cycle   8  Pass 1  IDiag  1:
 RMSU=  1.75D-05    CP:  8.13D-01  7.27D-01  9.50D-01  7.24D-01  1.04D+00
                    CP:  9.19D-01  1.01D+00
 E= -829.380020589160     Delta-E=       -0.000000408147 Rises=F Damp=F
 DIIS: error= 5.22D-06 at cycle   8 NSaved=   8.
 NSaved= 8 IEnMin= 8 EnMin= -829.380020589160     IErMin= 8 ErrMin= 5.22D-06
 ErrMax= 5.22D-06  0.00D+00 EMaxC= 1.00D-01 BMatC= 4.99D-08 BMatP= 3.60D-07
 IDIUse=1 WtCom= 1.00D+00 WtEn= 0.00D+00
 Coeff-Com:  0.274D-03-0.633D-03-0.446D-02-0.938D-02-0.234D-01 0.361D-01
 Coeff-Com:  0.341D+00 0.661D+00
 Coeff:      0.274D-03-0.633D-03-0.446D-02-0.938D-02-0.234D-01 0.361D-01
 Coeff:      0.341D+00 0.661D+00
 Gap=     0.302 Goal=   None    Shift=    0.000
 RMSDP=1.01D-05 MaxDP=7.76D-04 DE=-4.08D-07 OVMax= 8.89D-05

 Cycle   9  Pass 1  IDiag  1:
 RMSU=  6.42D-06    CP:  8.13D-01  7.26D-01  9.51D-01  7.24D-01  1.04D+00
                    CP:  9.32D-01  1.04D+00  1.04D+00
 E= -829.380020649801     Delta-E=       -0.000000060641 Rises=F Damp=F
 DIIS: error= 1.49D-06 at cycle   9 NSaved=   9.
 NSaved= 9 IEnMin= 9 EnMin= -829.380020649801     IErMin= 9 ErrMin= 1.49D-06
 ErrMax= 1.49D-06  0.00D+00 EMaxC= 1.00D-01 BMatC= 2.52D-09 BMatP= 4.99D-08
 IDIUse=1 WtCom= 1.00D+00 WtEn= 0.00D+00
 Coeff-Com: -0.281D-05 0.147D-04-0.315D-03-0.123D-02-0.784D-02-0.122D-01
 Coeff-Com:  0.102D-01 0.161D+00 0.850D+00
 Coeff:     -0.281D-05 0.147D-04-0.315D-03-0.123D-02-0.784D-02-0.122D-01
 Coeff:      0.102D-01 0.161D+00 0.850D+00
 Gap=     0.302 Goal=   None    Shift=    0.000
 RMSDP=2.96D-06 MaxDP=2.74D-04 DE=-6.06D-08 OVMax= 4.89D-05

 Cycle  10  Pass 1  IDiag  1:
 RMSU=  1.99D-06    CP:  8.13D-01  7.26D-01  9.51D-01  7.24D-01  1.04D+00
                    CP:  9.32D-01  1.05D+00  1.15D+00  1.05D+00
 E= -829.380020656012     Delta-E=       -0.000000006211 Rises=F Damp=F
 DIIS: error= 7.48D-07 at cycle  10 NSaved=  10.
 NSaved=10 IEnMin=10 EnMin= -829.380020656012     IErMin=10 ErrMin= 7.48D-07
 ErrMax= 7.48D-07  0.00D+00 EMaxC= 1.00D-01 BMatC= 4.84D-10 BMatP= 2.52D-09
 IDIUse=1 WtCom= 1.00D+00 WtEn= 0.00D+00
 Coeff-Com: -0.392D-04 0.928D-04 0.477D-03 0.776D-03 0.165D-03-0.851D-02
 Coeff-Com: -0.383D-01-0.263D-01 0.291D+00 0.781D+00
 Coeff:     -0.392D-04 0.928D-04 0.477D-03 0.776D-03 0.165D-03-0.851D-02
 Coeff:     -0.383D-01-0.263D-01 0.291D+00 0.781D+00
 Gap=     0.302 Goal=   None    Shift=    0.000
 RMSDP=1.16D-06 MaxDP=8.50D-05 DE=-6.21D-09 OVMax= 2.48D-05

 Cycle  11  Pass 1  IDiag  1:
 RMSU=  6.74D-07    CP:  8.13D-01  7.26D-01  9.51D-01  7.24D-01  1.04D+00
                    CP:  9.31D-01  1.05D+00  1.17D+00  1.13D+00  1.02D+00
 E= -829.380020657120     Delta-E=       -0.000000001108 Rises=F Damp=F
 DIIS: error= 2.97D-07 at cycle  11 NSaved=  11.
 NSaved=11 IEnMin=11 EnMin= -829.380020657120     IErMin=11 ErrMin= 2.97D-07
 ErrMax= 2.97D-07  0.00D+00 EMaxC= 1.00D-01 BMatC= 7.21D-11 BMatP= 4.84D-10
 IDIUse=1 WtCom= 1.00D+00 WtEn= 0.00D+00
 Coeff-Com: -0.110D-04 0.252D-04 0.196D-03 0.419D-03 0.125D-02-0.709D-03
 Coeff-Com: -0.135D-01-0.351D-01-0.563D-01 0.256D+00 0.848D+00
 Coeff:     -0.110D-04 0.252D-04 0.196D-03 0.419D-03 0.125D-02-0.709D-03
 Coeff:     -0.135D-01-0.351D-01-0.563D-01 0.256D+00 0.848D+00
 Gap=     0.302 Goal=   None    Shift=    0.000
 RMSDP=4.17D-07 MaxDP=4.70D-05 DE=-1.11D-09 OVMax= 1.19D-05

 Cycle  12  Pass 1  IDiag  1:
 RMSU=  2.86D-07    CP:  8.13D-01  7.26D-01  9.51D-01  7.24D-01  1.04D+00
                    CP:  9.31D-01  1.05D+00  1.18D+00  1.14D+00  1.14D+00
                    CP:  1.12D+00
 E= -829.380020657255     Delta-E=       -0.000000000135 Rises=F Damp=F
 DIIS: error= 7.95D-08 at cycle  12 NSaved=  12.
 NSaved=12 IEnMin=12 EnMin= -829.380020657255     IErMin=12 ErrMin= 7.95D-08
 ErrMax= 7.95D-08  0.00D+00 EMaxC= 1.00D-01 BMatC= 5.55D-12 BMatP= 7.21D-11
 IDIUse=1 WtCom= 1.00D+00 WtEn= 0.00D+00
 Coeff-Com:  0.188D-05-0.427D-05-0.681D-05 0.569D-05 0.235D-03 0.720D-03
 Coeff-Com:  0.102D-02-0.452D-02-0.439D-01-0.266D-01 0.188D+00 0.885D+00
 Coeff:      0.188D-05-0.427D-05-0.681D-05 0.569D-05 0.235D-03 0.720D-03
 Coeff:      0.102D-02-0.452D-02-0.439D-01-0.266D-01 0.188D+00 0.885D+00
 Gap=     0.302 Goal=   None    Shift=    0.000
 RMSDP=1.51D-07 MaxDP=2.42D-05 DE=-1.35D-10 OVMax= 3.66D-06

 Cycle  13  Pass 1  IDiag  1:
 RMSU=  7.40D-08    CP:  8.13D-01  7.26D-01  9.51D-01  7.24D-01  1.04D+00
                    CP:  9.31D-01  1.05D+00  1.18D+00  1.14D+00  1.17D+00
                    CP:  1.21D+00  1.18D+00
[...]
 1,-0.00000212,0.00000443,0.00000494,0.00000277,-0.00009060,0.00004177,
 0.00003828,0.00005664,-0.00012058,-0.00007529,-0.00011348,0.00009038,-
 0.00006807,0.01738634,0.00530556,0.00569357,0.06971302,0.02494885,0.08
 115746,0.00000610,-0.00003125,0.00007189,0.00005044,0.00001666,-0.0000
 2587,0.00001896,0.00004094,-0.00010110,-0.00008799,-0.00012226,-0.0001
 1347,-0.00005069,0.00026123,0.00004385,0.00020315,-0.00018740,-0.00000
 341,0.00051611,-0.00004468,0.00092338,0.00029882,0.00029869,-0.0001491
 3,-0.00000828,-0.00002970,0.00008765,-0.00006991,0.00000013,0.00005749
 ,0.00003341,-0.00002142,-0.00003001,-0.00002117,-0.00001210,-0.0000003
 2,-0.00005348,0.00002101,-0.00002503,0.00000378,-0.00003214,-0.0000306
 3,-0.00002249,-0.00000893,0.00001430,-0.00000713,0.00002561,-0.0000269
 9,-0.00001384,0.00001124,-0.00014357,-0.00086450,0.00169696,0.00184845
 ,-0.10935539,0.13613863,-0.01950622,-0.00001549,-0.00001932,0.00005436
 ,-0.00000466,0.00000450,-0.00000392,0.00004843,-0.00011771,-0.00000957
 ,0.00020797,0.00000507,-0.00001892,0.00000212,0.00004493,-0.00016483,0
 .00005644,-0.00010016,0.00000659,0.00034473,-0.00017870,-0.00005104,0.
 00001952,0.00000122,-0.00000498,0.00000228,0.00000169,0.00000498,0.000
 00143,-0.00002258,0.00000600,-0.00000090,-0.00000016,0.00000255,0.0000
 0155,-0.00001854,0.00000312,0.00000267,-0.00000289,0.00000510,0.000004
 56,-0.00000235,-0.00000395,0.00000248,-0.00000140,-0.00000501,0.000005
 76,-0.00003826,-0.00005095,-0.00006048,-0.00002133,0.00002552,0.000070
 30,-0.00000386,-0.00000171,0.00015909,-0.00049494,-0.00156540,-0.00030
 772,0.00003828,0.00013044,0.12470602,0.00000132,-0.00002972,0.00009523
 ,0.00013118,0.00002158,-0.00014707,0.00002047,0.00002096,-0.00006495,-
 0.00003873,-0.00003593,-0.00006858,-0.00023277,0.00056012,0.00007091,-
 0.00007870,0.00004202,0.00021962,-0.00123875,0.00030301,-0.00278791,0.
 00068594,-0.00009181,0.00047158,0.00002820,-0.00008474,-0.00022596,-0.
 00002788,0.00004252,-0.00002310,0.00003371,0.00000486,-0.00000089,-0.0
 0006355,-0.00004293,0.00003307,-0.00004540,-0.00004982,0.00003193,0.00
 000977,-0.00003564,-0.00003047,-0.00004012,0.00003316,-0.00002461,0.00
 001714,-0.00013170,-0.00003341,0.00001080,-0.00003117,0.00002283,0.002
 86063,-0.01091829,0.00660879,0.17695188,-0.35948074,-0.00403519,-0.000
 02195,-0.00001724,0.00004399,-0.00000711,0.00000509,-0.00000817,0.0000
 3591,-0.00008155,-0.00000938,0.00017402,-0.00005907,-0.00001964,0.0001
 3976,-0.00030500,-0.00022911,0.00006750,-0.00010913,-0.00000648,0.0000
 8686,0.00005393,0.00008554,0.00002511,-0.00000585,0.00001085,-0.000002
 64,0.00000153,0.00000009,0.00000119,-0.00002003,0.00000095,0.00000118,
 0.00000211,0.00000220,0.00000939,-0.00003085,-0.00000217,-0.00000341,-
 0.00002324,-0.00001820,0.00000394,-0.00000357,-0.00000871,0.00000081,-
 0.00000896,-0.00002117,-0.00000999,0.00001665,-0.00000885,0.00000099,0
 .00001553,0.00001660,-0.00001099,0.00000789,0.00001051,0.00001766,0.00
 210316,0.00036213,-0.00000126,-0.00020081,-0.00012796,-0.17155786,0.36
 424498,-0.00000352,0.00001306,-0.00008015,-0.00026487,0.00010347,0.000
 26893,-0.00010641,-0.00002929,0.00003093,0.00007567,0.00004610,0.00013
 793,-0.00004682,-0.00004389,-0.00056557,0.00006937,0.00026636,-0.00060
 192,-0.00133006,-0.00139859,-0.00684947,0.00128692,-0.00111693,0.00063
 517,-0.00005994,-0.00023399,-0.00054785,0.00001990,-0.00004956,0.00001
 596,0.00002008,0.00001103,-0.00000222,0.00009575,0.00008036,-0.0000772
 4,-0.00004789,-0.00015652,0.00012428,0.00001292,-0.00002973,-0.0000671
 7,-0.00004971,0.00001940,-0.00002462,-0.00000376,-0.00016991,0.0000523
 7,0.00005869,-0.00003066,0.00016397,0.01988101,-0.03491510,-0.00336317
 ,-0.03545772,0.02289962,-0.04070320,0.00003612,-0.00000082,0.00000443,
 0.00000745,-0.00000778,0.00001031,-0.00000530,0.00007422,0.00000154,-0
 .00013145,0.00002194,-0.00001987,-0.00017965,0.00042377,0.00053304,-0.
 00011422,0.00011862,0.00003682,0.00003750,0.00021172,0.00003705,0.0000
 1439,0.00001105,0.00002813,-0.00000521,-0.00000481,0.00000103,-0.00000
 218,-0.00001043,0.00000733,0.00000321,-0.00000423,0.00000021,-0.000017
 39,0.00005800,0.00002612,0.00000650,-0.00005218,-0.00004545,0.00000539
 ,-0.00000332,-0.00001050,-0.00000381,-0.00000798,-0.00003482,-0.000021
 23,0.00005300,0.00001955,0.00003846,0.00004137,-0.00000514,-0.00007840
 ,0.00002340,0.00003235,0.00050601,0.00021776,0.00208317,-0.00040072,0.
 00026353,0.00064856,0.01962237,-0.00057095,0.04951889,0.00000221,0.000
 02437,-0.00007665,-0.00019742,0.00009369,0.00021926,-0.00006537,0.0000
 0564,-0.00002588,-0.00006191,-0.00008338,-0.00001602,-0.00010866,-0.00
 035848,-0.00028007,0.00034310,0.00006560,-0.00045788,0.00240274,0.0002
 5576,0.00084043,-0.00001978,0.00019048,-0.00003293,0.00000613,0.000010
 44,0.00004505,0.00003839,0.00002291,0.00003845,-0.00002217,-0.00000875
 ,-0.00000146,0.00008462,0.00006383,-0.00006405,-0.00001588,0.00001436,
 0.00002003,0.00000222,0.00002723,-0.00000904,-0.00001323,-0.00003015,-
 0.00000030,-0.00004255,0.00000838,0.00004831,0.00000798,0.00004451,0.0
 0005822,0.00171099,-0.00074629,0.00551240,-0.37996900,-0.03741334,-0.1
 3526986,0.00002037,0.00000587,0.00000670,0.00000986,-0.00001019,0.0000
 0868,0.00001932,-0.00001180,0.00001222,0.00002438,0.00006304,-0.000019
 75,-0.00000352,0.00017793,0.00036877,-0.00011854,0.00000527,0.00002320
 ,-0.00017480,-0.00101168,-0.00031621,-0.00000611,-0.00000031,-0.000002
 27,0.00000019,0.00000111,0.00000248,-0.00000044,0.00001095,0.00000376,
 -0.00000204,-0.00000191,-0.00000020,-0.00001524,0.00004230,0.00000949,
 -0.00000313,0.00000605,0.00000547,0.00000132,0.00000173,0.00000249,0.0
 0000226,0.00000208,0.00000390,-0.00000918,0.00000955,0.00001882,0.0000
 1642,-0.00000712,-0.00002289,-0.00000913,0.00000459,-0.00001943,0.0003
 0858,0.00066328,0.00050510,0.00172366,0.00053025,0.00010341,-0.0158049
 3,-0.00791451,-0.00347637,0.38992862,0.00002813,0.00008694,-0.00020646
 ,-0.00036382,-0.00003140,0.00041126,-0.00005667,0.00004471,-0.00005586
 ,-0.00024691,-0.00019451,-0.00019511,-0.00039436,-0.00058238,-0.000268
 26,0.00050932,-0.00016394,-0.00035503,-0.00107938,0.00038292,-0.000524
 09,0.00010464,-0.00002128,-0.00002581,-0.00004005,0.00017466,0.0000947
 3,0.00020072,0.00001088,0.00003619,-0.00006449,0.00000271,0.00002339,0
 .00014264,0.00010823,-0.00008702,-0.00000752,-0.00000202,-0.00001904,0
 .00000488,-0.00000182,0.00004486,0.00001007,-0.00000649,0.00006553,-0.
 00000807,0.00015865,0.00002658,0.00003392,-0.00000998,0.00001235,-0.01
 498850,-0.00369335,-0.00219125,-0.06464445,-0.05147946,-0.04633983,0.0
 0004183,0.00001674,0.00001248,0.00001909,-0.00001931,0.00002416,0.0001
 0416,-0.00008227,0.00002931,0.00012351,0.00016556,-0.00011282,-0.00010
 071,-0.00054907,0.00117942,-0.00010062,0.00012806,0.00004053,0.0004297
 8,0.00003050,0.00002998,-0.00000237,-0.00001456,-0.00000194,0.00001452
 ,0.00001284,0.00000114,0.00000547,0.00004232,-0.00000069,-0.00000482,-
 0.00000456,-0.00000223,-0.00002328,0.00007936,0.00001182,-0.00000373,0
 .00001633,0.00000924,0.00000174,0.00000183,0.00000943,0.00000047,0.000
 01045,0.00001911,-0.00000616,-0.00002186,0.00000379,-0.00001826,-0.000
 02208,-0.00001035,-0.00001525,-0.00001938,0.00005351,0.00068535,0.0001
 7986,0.00026301,-0.00003132,-0.00123876,-0.00417635,0.03447143,0.00432
 834,0.01387517,0.04524570,0.05217217,-0.00000730,-0.00001447,0.0000297
 8,0.00012943,-0.00004914,-0.00012243,0.00004778,-0.00003502,0.00005335
 ,0.00012368,0.00020747,0.00010352,0.00018856,-0.00016228,0.00022854,-0
 .00009430,-0.00007471,0.00036036,-0.00069122,0.00030337,0.00191528,0.0
 0013309,0.00043808,-0.00015614,0.00001735,0.00008093,0.00017042,0.0000
 0307,-0.00000685,-0.00002756,-0.00000506,0.00000340,0.00000518,-0.0000
 4554,-0.00003826,0.00003928,-0.00003681,0.00003594,-0.00005191,0.00001
 182,-0.00000559,0.00002470,-0.00002364,-0.00000168,0.00002621,-0.00002
 773,0.00008259,0.00000970,-0.00004949,-0.00002254,-0.00006635,-0.03470
 573,-0.00730698,-0.01641521,-0.09820750,-0.03099621,-0.07086709,-0.000
 00676,-0.00000253,-0.00003051,-0.00000589,0.00000728,-0.00000703,-0.00
 004017,0.00008394,-0.00001274,-0.00006461,-0.00006458,0.00000312,0.000
 11609,0.00015876,-0.00052475,0.00003885,-0.00008263,-0.00004106,0.0006
 8998,-0.00023281,-0.00004567,-0.00001183,0.00000006,-0.00000060,-0.000
 00404,-0.00000139,-0.00000207,-0.00000005,0.00000286,-0.00000622,-0.00
 000201,0.00000371,-0.00000022,0.00000812,-0.00002762,-0.00001172,-0.00
 000356,0.00001555,0.00001308,0.00000125,0.00000188,0.00000237,0.000001
 13,0.00000280,0.00001121,0.00004351,0.00000248,-0.00000573,0.00001008,
 0.00001249,0.00003284,0.00005967,-0.00003257,-0.00000086,-0.00031655,0
 .00051867,0.00077097,0.00137006,-0.00149517,-0.00500991,-0.00087999,0.
 00037757,-0.00141626,0.13223953,0.03831142,0.09102020,0.00009985,0.000
 18649,-0.00023308,0.00086445,-0.00349647,0.00281449,-0.02037028,0.0027
 4030,-0.01174106,0.00114430,0.00138836,-0.00023925,0.00004755,0.000019
 37,-0.00022453,-0.00121258,0.00037188,-0.00045519,0.00003994,0.0000699
 6,0.00002141,-0.00001034,-0.00005942,0.00002737,-0.00004235,0.00002142
 ,-0.00001189,0.00009361,0.00000920,-0.00000435,-0.00003627,0.00003244,
 -0.00003888,0.00014521,-0.00026029,-0.00011500,0.00000351,-0.00001483,
 0.00000490,0.00000503,0.00000162,0.00001440,0.00000414,0.00000258,0.00
 001822,0.00000034,0.00001961,-0.00000520,-0.00000133,0.00000241,0.0000
 0173,-0.00001719,0.00001397,0.00001414,0.00001995,-0.00004999,0.000007
 75,-0.29435034,0.01666299,-0.10715593,0.00010665,0.00002281,-0.0000611
 9,-0.00003905,-0.00028515,0.00051808,-0.00019700,-0.00010132,0.0002991
 9,-0.00001088,-0.00004808,0.00000077,-0.00019006,-0.00038801,0.0002352
 2,-0.00000609,-0.00000530,0.00000615,-0.00000764,-0.00000782,-0.000002
 03,-0.00001523,-0.00001731,0.00002029,-0.00001230,0.00002004,0.0000630
 7,-0.00009697,0.00013060,0.00001393,0.00000508,0.00008786,0.00001518,-
 0.00000246,0.00000372,0.00000004,0.00000003,0.00000074,0.00000549,-0.0
 0000039,0.00000087,0.00000494,0.00000020,-0.00000239,0.00000300,0.0000
 0075,-0.00000169,-0.00000031,0.00000028,-0.00000309,-0.00000070,0.0000
 0562,-0.00001653,0.00000025,-0.00000214,-0.00000175,-0.00000280,-0.000
 00635,-0.00000927,0.00000863,0.00000821,0.00001775,-0.00000584,0.31268
 564,0.00083281,-0.00001771,-0.00000942,-0.00174758,0.00920527,0.006028
 98,-0.01337069,0.00444183,-0.00417996,0.00159986,-0.00448487,-0.003260
 69,-0.00015150,-0.00015158,-0.00034539,0.00129770,-0.00013008,0.000377
 88,0.00001691,-0.00003254,0.00002282,0.00002622,0.00000221,0.00000244,
 0.00001632,-0.00002117,-0.00001930,0.00005164,0.00004467,-0.00002355,-
 0.00002855,-0.00009880,-0.00023587,-0.00228036,-0.00033744,-0.00074643
 ,0.00000568,0.00000663,0.00001634,-0.00000431,0.00000784,-0.00000805,-
 0.00000043,-0.00001028,-0.00000460,0.00000071,-0.00000334,0.00001393,-
 0.00000100,0.00000029,0.00000123,-0.00000840,-0.00001232,0.00002715,0.
 00000114,-0.00000324,-0.00000134,0.01875370,-0.04089780,0.01834779,-0.
 00004833,-0.00002030,0.00013459,-0.00022924,0.00031949,-0.00089461,0.0
 0050394,-0.00082484,0.00075828,-0.00001407,-0.00013394,0.00007300,0.00
 008017,0.00016733,-0.00027174,0.00000587,-0.00000074,0.00000907,0.0000
 1582,0.00000577,-0.00000705,0.00005914,-0.00000202,-0.00000753,0.00000
 277,0.00001087,0.00004347,-0.00042156,0.00064447,0.00019212,-0.0000474
 2,0.00001733,-0.00000639,0.00000090,-0.00000091,-0.00000091,-0.0000000
 3,-0.00000015,0.00000015,0.00000069,-0.00000015,-0.00000007,0.00000011
 ,0.00000006,0.00000016,0.00000026,-0.00000018,0.00000014,-0.00000021,-
 0.00000008,-0.00000042,-0.00001309,-0.00000783,-0.00000506,-0.00002356
 ,-0.00000408,-0.00000307,-0.00000197,-0.00000223,0.00000214,-0.0000005
 3,-0.00000139,0.,-0.01634819,0.03067634,-0.00032802,-0.00025492,0.0004
 6764,0.00068085,0.00634062,0.00031193,0.01527760,-0.00095677,0.0098274
 9,0.00084372,-0.00304768,-0.00082303,-0.00014949,-0.00015327,-0.000020
 82,0.00149561,-0.00019839,0.00057104,-0.00003077,-0.00004512,-0.000014
 83,0.00000052,0.00001479,-0.00001844,0.00002536,-0.00001548,-0.0000059
 8,-0.00004016,-0.00000188,0.00000833,0.00000406,-0.00005939,-0.0000647
 3,-0.00108855,0.00008833,-0.00023163,0.00000277,0.00000627,0.00000094,
 -0.00000520,0.00000047,-0.00000432,-0.00000032,-0.00000266,-0.00000539
 ,0.00000153,-0.00000542,0.00000168,-0.00000080,-0.00000032,0.00000032,
 0.00001164,-0.00000408,0.00001938,-0.00001597,0.00001258,-0.00000638,-
 0.11028900,0.01788417,-0.09808948,-0.00007724,-0.00007856,0.00019280,-
 0.00026826,-0.00011664,-0.00042657,0.00003757,-0.00035644,0.00064695,-
 0.00002164,-0.00004084,0.00003173,0.00025682,0.00040177,-0.00024665,-0
 .00000077,-0.00001337,0.00001954,0.00001058,0.00001956,0.00001058,0.00
 000066,0.00000251,-0.00000735,0.00000451,-0.00000219,-0.00001639,-0.00
 007435,0.00021647,0.00006024,-0.00000983,-0.00004588,-0.00003055,0.000
 00099,-0.00000062,0.00000009,-0.00000019,0.00000021,-0.00000122,0.0000
 0026,-0.00000029,-0.00000084,-0.00000007,0.00000061,-0.00000015,-0.000
 00015,0.00000049,0.00000014,0.00000014,0.00000057,-0.00000022,-0.00001
 190,-0.00000155,-0.00000417,-0.00001943,-0.00000274,-0.00000578,0.0000
 0101,0.00000148,-0.00000321,-0.00000351,-0.00001049,0.00000345,0.11519
 068,-0.02015236,0.09307249,-0.00038244,-0.00015953,0.00003606,0.000472
 66,0.00114930,0.00025417,0.00703970,-0.01230847,0.02342055,-0.00291770
 ,-0.00170038,-0.00040705,0.00038432,-0.00057764,0.00085901,0.00034382,
 0.00002133,0.00012713,-0.00034594,0.00001132,-0.00009265,-0.00000956,-
 0.00007106,-0.00005001,-0.00003440,0.00002230,-0.00004486,0.00003400,-
 0.00012805,-0.00004887,0.00001843,-0.00002225,-0.00002454,-0.00023994,
 -0.00009856,-0.00008535,0.00000449,-0.00001097,0.00000017,0.00000556,0
 .00000344,0.00001733,0.00000345,0.00000093,0.00002011,0.00000482,0.000
 02685,-0.00000526,-0.00000056,0.00000343,0.00000244,-0.00004373,0.0000
 5325,0.00001903,0.00000207,-0.00006037,-0.00000010,-0.05738774,0.01147
 583,-0.02863750,0.00002758,0.00014065,-0.00001316,-0.00001783,0.000112
 65,-0.00004676,0.00000007,-0.00023746,0.00027877,0.00001221,-0.0000120
 3,-0.00001570,-0.00000550,0.00006713,-0.00007915,-0.00006958,-0.000114
 03,0.00010960,-0.00005629,0.00004000,0.00002388,0.00001512,-0.00002518
 ,-0.00002636,-0.00001484,0.00002218,-0.00001088,-0.00003613,0.00010445
 ,0.00001155,0.00004702,0.00005602,-0.00006664,-0.00000240,0.00000579,0
 .00000212,0.00000007,0.00000088,0.00000558,-0.00000067,0.00000148,0.00
 000630,0.00000007,-0.00000271,0.00000418,0.00000114,-0.00000190,-0.000
 00113,-0.00000085,-0.00000346,-0.00000149,0.00000125,-0.00003332,-0.00
 000266,-0.00001098,0.00001024,-0.00001493,-0.00001073,-0.00001046,0.00
 000030,0.00000144,0.00000562,0.00000254,0.00134692,0.01146865,-0.02141
 126,0.05182159,0.00013933,0.00014486,-0.00040518,0.00196475,-0.0062992
 2,-0.00238825,0.00097352,-0.00025888,0.01090750,-0.00369636,0.00759536
 ,0.00388371,0.00064280,0.00000073,0.00105892,-0.00076346,0.00019702,-0
 .00044196,-0.00019595,0.00012779,-0.00007700,-0.00003451,-0.00005965,-
 0.00002311,-0.00004257,0.00002715,-0.00001723,0.00001535,-0.00005266,-
 0.00005761,0.00004754,0.00011176,0.00017892,0.00107328,0.00012853,0.00
 039070,-0.00000551,-0.00001546,-0.00001461,0.00000566,-0.00000573,0.00
 001833,0.00000572,0.00000918,0.00001906,0.00000098,0.00002456,-0.00001
 726,0.00000115,0.00000191,-0.00000024,-0.00000358,0.00003390,-0.000020
 80,0.00000681,-0.00004655,-0.00000320,0.00976232,-0.09834749,0.1257609
 0,0.00018245,0.00009849,-0.00027302,0.00008630,-0.00064380,0.00135222,
 0.00002043,0.00092328,-0.00141683,-0.00003457,0.00004921,-0.00004566,-
 0.00012660,-0.00015507,0.00017648,-0.00004889,-0.00005507,0.00003622,-
 0.00006663,-0.00000396,0.00000696,-0.00009764,0.00000040,0.00001976,-0
 .00002823,0.00000661,-0.00001950,0.00011775,-0.00037123,-0.00004202,-0
 .00000974,-0.00005937,0.00004931,-0.00000054,0.00000423,0.00000045,0.0
 0000022,0.00000080,0.00000393,-0.00000141,0.00000086,0.00000496,0.0000
 0010,-0.00000269,0.00000276,-0.00000024,-0.00000200,-0.00000069,0.0000
 0028,-0.00000233,0.00000025,0.00002447,-0.00001100,0.00000157,0.000026
 02,0.00000491,0.00000201,-0.00000634,-0.00000745,0.00000158,0.00000155
 ,0.00000582,0.00000178,-0.00071006,0.00164963,0.00057645,-0.00922594,0
 .09525260,-0.00124216,-0.00046816,0.00057087,-0.00092499,-0.00332130,-
 0.00270952,-0.00143191,0.00797519,-0.00990605,0.00130413,0.00326207,0.
 00387646,-0.00023064,0.00060084,-0.00045657,-0.00033574,-0.00004255,-0
 .00026900,0.00028886,-0.00001359,0.00004893,-0.00000674,0.00006061,0.0
 0003730,-0.00000239,-0.00002175,0.00003513,-0.00001358,0.00007900,0.00
 003763,0.00003055,0.00005876,0.00006765,0.00077578,0.00007128,0.000235
 16,-0.00000662,0.00000363,-0.00001302,-0.00000054,-0.00000960,-0.00000
 802,-0.00000262,0.00000764,-0.00001126,-0.00000010,-0.00002301,-0.0000
 1195,0.00000034,-0.00000411,-0.00000138,0.00003629,-0.00004658,-0.0000
 2466,-0.00000053,0.00004482,-0.00000100,-0.02518453,0.12696525,-0.2764
 0967,0.00000800,-0.00007160,0.00016732,-0.00010563,-0.00042126,0.00061
 226,-0.00014187,0.00054275,-0.00066206,-0.00001554,0.00003737,-0.00001
 282,0.00003781,-0.00004432,0.00012327,0.00004117,0.00008519,-0.0000939
 8,0.00003152,-0.00003827,-0.00001568,-0.00006035,0.00001175,0.00002259
 ,-0.00000589,-0.00002327,-0.00001349,0.00015068,-0.00020194,-0.0000638
 8,0.00010969,-0.00001918,-0.00005763,0.00000123,-0.00000423,-0.0000017
 2,-0.00000002,-0.00000071,-0.00000432,-0.00000022,-0.00000148,-0.00000
 502,-0.00000008,0.00000187,-0.00000347,-0.00000071,0.00000128,0.000001
 31,0.00000088,0.00000228,0.00000149,0.00000228,0.00002865,0.00000248,0
 .00001521,-0.00000607,0.00001430,0.00000699,0.00000707,-0.00000022,-0.
 00000139,-0.00000582,-0.00000153,0.00098789,0.00413211,-0.00521862,0.0
 2588550,-0.13919060,0.29012238\\0.00000947,0.00000400,0.00000034,-0.00
 000250,-0.00001066,-0.00000452,-0.00000077,0.00000033,0.00000525,-0.00
 000394,-0.00000524,0.00000147,0.00001845,-0.00000548,-0.00000055,0.000
 00351,-0.00000708,-0.00000331,-0.00002553,0.00000386,0.00001250,-0.000
 00177,-0.00000391,-0.00000075,-0.00000810,0.00001069,-0.00000972,0.000
 00046,0.00000957,0.00000076,0.00000370,-0.00000766,-0.00000074,0.00000
 335,-0.00000961,0.00000255,-0.00000374,-0.00001017,0.00000109,-0.00000
 148,-0.00000305,-0.00000505,-0.00000640,0.00000500,-0.00000507,0.00000
 334,-0.00000385,0.00000242,0.00000140,0.00001115,0.00000476,0.00000889
 ,-0.00000910,-0.00000720,0.00000317,0.00000407,-0.00000073,-0.00000075
 ,-0.00000181,0.00000075,-0.00000173,-0.00000500,-0.00000292,0.00000015
 ,0.00000471,0.00000185,0.00000243,-0.00000065,0.00000251,0.00000266,-0
 .00000071,-0.00000100,-0.00000397,0.00000046,-0.00000017,0.00001043,0.
 00000186,-0.00000161,-0.00000170,-0.00000174,0.00000208,-0.00000022,0.
 00000358,-0.00000179,-0.00000295,0.00000483,-0.00000207,-0.00000190,-0
 .00000031,-0.00000326,0.00000497,0.00000486,-0.00000634,-0.00000159,0.
 00000635,-0.00000025,-0.00000440,0.00000756,-0.00000022,-0.00000347,0.
 00000122,0.00000370,-0.00000113,0.00000398,0.00000135,-0.00000830,-0.0
 0000407,-0.00000814,-0.00000265,-0.00000214,0.00000466,-0.00000260,-0.
 00000144,0.00000819,0.00000448,0.00000647,0.00000180,-0.00000041,-0.00
 000224,0.00000659,-0.00000026,0.00000056,-0.00000072,0.00000563,0.0000
 0072,0.00000316,0.00000577,0.00000009,-0.00000166\\\@


 ONE BIG VICE IN A MAN IS APT TO KEEP OUT MANY SMALLER ONES.

                           -- BRET HARTE
 Job cpu time:       0 days 11 hours 55 minutes 41.0 seconds.
 Elapsed time:       0 days 11 hours 58 minutes 16.2 seconds.
 File lengths (MBytes):  RWF=   1115 Int=      0 D2E=      0 Chk=     34 Scr=      1
 Normal termination of Gaussian 16 at Fri Jul 28 00:37:24 2023.
 
 Fri Jul 28 12:37:24 AM IDT 2023
 ark
 86373.794u 45.205s 24:05:37.38 99.6%	0+0k 78504+19984592io 44pf+0w
 
 ****** xrung16 messages ******
 Job 2-3_neutral_pka is run from:
 /var/spool/scratch/tchem07/g16/2-3_neutral_pka
 86373.789u 45.188s 24:05:37.34 99.6%	0+0k 78496+19984560io 44pf+0w
