 cputime      unlimited
 filesize     unlimited
 datasize     unlimited
 stacksize    unlimited
 coredumpsize 0 kbytes
 memoryuse    256000 kbytes
 vmemoryuse   unlimited
 descriptors  1024 
 memorylocked 8192 kbytes
 maxproc      382511 
 maxlocks     unlimited
 maxsignal    382511 
 maxmessage   819200 
 maxnice      0 
 maxrtprio    0 
 maxrttime    unlimited
 Sun Aug  6 05:45:40 AM IDT 2023
 ark
 
        *=*=*=*=*=*=*=*=*=*=*=*=*=*=*=*=*
        * xrung16: Running g16          *
        * (Command = time /bin/nice g16 *
        *=*=*=*=*=*=*=*=*=*=*=*=*=*=*=*=*
        g16root=/private/chem/g16E03
        g16 = /private/chem/g16E03/g16/g16
 
 Entering Gaussian System, Link 0=g16
 Initial command:
 /private/chem/g16E03/g16/l1.exe "/var/spool/scratch/tchem07/g16/2-3_charged_pka/Gau-800627.inp" -scrdir="/var/spool/scratch/tchem07/g16/2-3_charged_pka/"
 Entering Link 1 = /private/chem/g16E03/g16/l1.exe PID=    800628.
  
 Copyright (c) 1988,1990,1992,1993,1995,1998,2003,2009,2016,
            Gaussian, Inc.  All Rights Reserved.
  
 This is part of the Gaussian(R) 16 program.  It is based on
 the Gaussian(R) 09 system (copyright 2009, Gaussian, Inc.),
 the Gaussian(R) 03 system (copyright 2003, Gaussian, Inc.),
 the Gaussian(R) 98 system (copyright 1998, Gaussian, Inc.),
 the Gaussian(R) 94 system (copyright 1995, Gaussian, Inc.),
 the Gaussian 92(TM) system (copyright 1992, Gaussian, Inc.),
 the Gaussian 90(TM) system (copyright 1990, Gaussian, Inc.),
 the Gaussian 88(TM) system (copyright 1988, Gaussian, Inc.),
 the Gaussian 86(TM) system (copyright 1986, Carnegie Mellon
 University), and the Gaussian 82(TM) system (copyright 1983,
 Carnegie Mellon University). Gaussian is a federally registered
 trademark of Gaussian, Inc.
  
 This software contains proprietary and confidential information,
 including trade secrets, belonging to Gaussian, Inc.
  
 This software is provided under written license and may be
 used, copied, transmitted, or stored only in accord with that
 written license.
  
 The following legend is applicable only to US Government
 contracts under FAR:
  
                    RESTRICTED RIGHTS LEGEND
  
 Use, reproduction and disclosure by the US Government is
 subject to restrictions as set forth in subparagraphs (a)
 and (c) of the Commercial Computer Software - Restricted
 Rights clause in FAR 52.227-19.
  
 Gaussian, Inc.
 340 Quinnipiac St., Bldg. 40, Wallingford CT 06492
  
  
 ---------------------------------------------------------------
 Warning -- This program may not be used in any manner that
 competes with the business of Gaussian, Inc. or will provide
 assistance to any competitor of Gaussian, Inc.  The licensee
 of this program is prohibited from giving any competitor of
 Gaussian, Inc. access to this program.  By using this program,
 the user acknowledges that Gaussian, Inc. is engaged in the
 business of creating and licensing software in the field of
 computational chemistry and represents and warrants to the
 licensee that it is not a competitor of Gaussian, Inc. and that
 it will not use this program in any manner prohibited above.
 ---------------------------------------------------------------
  

 Cite this work as:
 Gaussian 16, Revision A.03,
 M. J. Frisch, G. W. Trucks, H. B. Schlegel, G. E. Scuseria, 
 M. A. Robb, J. R. Cheeseman, G. Scalmani, V. Barone, 
 G. A. Petersson, H. Nakatsuji, X. Li, M. Caricato, A. V. Marenich, 
 J. Bloino, B. G. Janesko, R. Gomperts, B. Mennucci, H. P. Hratchian, 
 J. V. Ortiz, A. F. Izmaylov, J. L. Sonnenberg, D. Williams-Young, 
 F. Ding, F. Lipparini, F. Egidi, J. Goings, B. Peng, A. Petrone, 
 T. Henderson, D. Ranasinghe, V. G. Zakrzewski, J. Gao, N. Rega, 
 G. Zheng, W. Liang, M. Hada, M. Ehara, K. Toyota, R. Fukuda, 
 J. Hasegawa, M. Ishida, T. Nakajima, Y. Honda, O. Kitao, H. Nakai, 
 T. Vreven, K. Throssell, J. A. Montgomery, Jr., J. E. Peralta, 
 F. Ogliaro, M. J. Bearpark, J. J. Heyd, E. N. Brothers, K. N. Kudin, 
 V. N. Staroverov, T. A. Keith, R. Kobayashi, J. Normand, 
 K. Raghavachari, A. P. Rendell, J. C. Burant, S. S. Iyengar, 
 J. Tomasi, M. Cossi, J. M. Millam, M. Klene, C. Adamo, R. Cammi, 
 J. W. Ochterski, R. L. Martin, K. Morokuma, O. Farkas, 
 J. B. Foresman, and D. J. Fox, Gaussian, Inc., Wallingford CT, 2016.
 
 ******************************************
 Gaussian 16:  ES64L-G16RevA.03 25-Dec-2016
                 6-Aug-2023 
 ******************************************
 %chk=/home/ch/tchem07/g16/2-3_charged_pka.chk
 -------------------------------------------------------
 #P M062X/6-31+G(d,p) Opt Freq SCRF=(SMD, Solvent=Water)
 -------------------------------------------------------
 1/18=20,19=15,26=3,38=1/1,3;
 2/9=110,12=2,17=6,18=5,40=1/2;
 3/5=1,6=6,7=111,11=2,25=1,30=1,70=32201,71=1,72=1,74=-55/1,2,3;
 4//1;
 5/5=2,38=5,53=1/2;
 6/7=2,8=2,9=2,10=2,28=1/1;
 7//1,2,3,16;
 1/18=20,19=15,26=3/3(2);
 2/9=110/2;
 99//99;
 2/9=110/2;
 3/5=1,6=6,7=111,11=2,25=1,30=1,70=32205,71=1,72=1,74=-55/1,2,3;
 4/5=5,16=3,69=1/1;
 5/5=2,38=5,53=1/2;
 7//1,2,3,16;
 1/18=20,19=15,26=3/3(-5);
 2/9=110/2;
 6/7=2,8=2,9=2,10=2,19=2,28=1/1;
 99/9=1/99;
 Leave Link    1 at Sun Aug  6 05:45:40 2023, MaxMem=           0 cpu:               0.0 elap:               0.0
 (Enter /private/chem/g16E03/g16/l101.exe)
 ---------------
 2-3_charged_pka
 ---------------
 Symbolic Z-matrix:
 Charge =  1 Multiplicity = 1
 C
 C                    1    B1
 C                    2    B2       1    A1
 C                    3    B3       2    A2       1    D1       0
 C                    4    B4       3    A3       2    D2       0
 C                    2    B5       1    A4       3    D3       0
 O                    6    B6       2    A5       1    D4       0
 C                    6    B7       2    A6       1    D5       0
 C                    8    B8       6    A7       2    D6       0
 C                    4    B9       3    A8       2    D7       0
 C                    10   B10      4    A9       3    D8       0
 C                    11   B11      10   A10      4    D9       0
 C                    12   B12      11   A11      10   D10      0
 C                    13   B13      12   A12      11   D11      0
 C                    14   B14      13   A13      12   D12      0
 C                    15   B15      14   A14      13   D13      0
 C                    11   B16      10   A15      4    D14      0
 C                    17   B17      11   A16      10   D15      0
 C                    18   B18      17   A17      11   D16      0
 N                    19   B19      18   A18      17   D17      0
 H                    1    B20      2    A19      6    D18      0
 H                    1    B21      2    A20      6    D19      0
 H                    3    B22      2    A21      1    D20      0
 H                    3    B23      2    A22      1    D21      0
 H                    5    B24      4    A23      3    D22      0
 H                    5    B25      4    A24      3    D23      0
 H                    7    B26      6    A25      2    D24      0
 H                    8    B27      6    A26      2    D25      0
 H                    8    B28      6    A27      2    D26      0
 H                    9    B29      8    A28      6    D27      0
 H                    9    B30      8    A29      6    D28      0
 H                    10   B31      4    A30      3    D29      0
 H                    12   B32      11   A31      10   D30      0
 H                    13   B33      12   A32      11   D31      0
 H                    14   B34      13   A33      12   D32      0
 H                    16   B35      15   A34      14   D33      0
 H                    16   B36      15   A35      14   D34      0
 H                    16   B37      15   A36      14   D35      0
 H                    18   B38      17   A37      11   D36      0
 H                    19   B39      18   A38      17   D37      0
 H                    19   B40      18   A39      17   D38      0
 H                    20   B41      19   A40      18   D39      0
 H                    20   B42      19   A41      18   D40      0
 H                    20   B43      19   A42      18   D41      0
       Variables:
  B1                    1.3552                   
  B2                    1.55471                  
  B3                    1.55657                  
  B4                    1.52006                  
  B5                    1.53509                  
  B6                    1.43                     
  B7                    1.54717                  
  B8                    1.54173                  
  B9                    1.53622                  
  B10                   1.5358                   
  B11                   1.34332                  
  B12                   1.55095                  
  B13                   1.37709                  
  B14                   1.55125                  
  B15                   1.54                     
  B16                   1.51104                  
  B17                   1.54013                  
  B18                   1.54                     
  B19                   1.47                     
  B20                   1.07                     
  B21                   1.07                     
  B22                   1.07                     
  B23                   1.07                     
  B24                   1.07                     
  B25                   1.07                     
  B26                   0.96                     
  B27                   1.07                     
  B28                   1.07                     
  B29                   1.07                     
  B30                   1.07                     
  B31                   1.07                     
  B32                   1.07                     
  B33                   1.07                     
  B34                   1.07                     
  B35                   1.07                     
  B36                   1.07                     
  B37                   1.07                     
  B38                   1.07                     
  B39                   1.07                     
  B40                   1.07                     
  B41                   1.                       
  B42                   1.                       
  B43                   1.                       
  A1                  126.79405                  
  A2                  102.35217                  
  A3                   99.3017                   
  A4                  126.75727                  
  A5                  115.70967                  
  A6                  106.5986                   
  A7                  107.33307                  
  A8                  113.30011                  
  A9                  101.55133                  
  A10                 131.07919                  
  A11                 117.09809                  
  A12                 120.46562                  
  A13                 120.49182                  
  A14                 121.4228                   
  A15                 106.43895                  
  A16                 106.82425                  
  A17                 114.44837                  
  A18                 109.47122                  
  A19                 120.                       
  A20                 120.                       
  A21                 114.03285                  
  A22                 108.89802                  
  A23                 114.05356                  
  A24                 110.32642                  
  A25                 109.47122                  
  A26                 109.77186                  
  A27                 110.38697                  
  A28                 110.79145                  
  A29                 108.60639                  
  A30                 111.20055                  
  A31                 121.45096                  
  A32                 119.76719                  
  A33                 119.75409                  
  A34                 109.47122                  
  A35                 109.47122                  
  A36                 109.47122                  
  A37                 109.54133                  
  A38                 109.47122                  
  A39                 109.47122                  
  A40                 109.47122                  
  A41                 109.47122                  
  A42                 109.47122                  
  D1                  165.44463                  
  D2                   42.18238                  
  D3                  179.51412                  
  D4                   40.05039                  
  D5                  -81.19785                  
  D6                  -44.24048                  
  D7                  -76.10925                  
  D8                  -75.63398                  
  D9                  152.01473                  
  D10                -179.60078                  
  D11                   0.04859                  
  D12                  -0.07576                  
  D13                 179.98084                  
  D14                 -27.70809                  
  D15                  -0.41884                  
  D16                 149.14504                  
  D17                  62.67074                  
  D18                 179.75707                  
  D19                  -0.24294                  
  D20                  42.38829                  
  D21                 -78.86575                  
  D22                -175.45001                  
  D23                  62.76016                  
  D24                 178.67217                  
  D25                -165.81293                  
  D26                  73.79371                  
  D27                -177.51319                  
  D28                  62.36156                  
  D29                 167.60179                  
  D30                   0.38137                  
  D31                -179.96338                  
  D32                 179.92815                  
  D33                 149.99197                  
  D34                 -90.00803                  
  D35                  29.99197                  
  D36                 -89.3202                   
  D37                 -57.32926                  
  D38                -177.32926                  
  D39                -180.                       
  D40                 -60.                       
  D41                  60.                       
 
    10 tetrahedral angles replaced.
 ITRead=  0  0  0  0  0  0  0  0  0  0  0  0  0  0  0  0  0  0  0  0
 ITRead=  0  0  0  0  0  0  0  0  0  0  0  0  0  0  0  0  0  0  0  0
 ITRead=  0  0  0  0
 MicOpt= -1 -1 -1 -1 -1 -1 -1 -1 -1 -1 -1 -1 -1 -1 -1 -1 -1 -1 -1 -1
 MicOpt= -1 -1 -1 -1 -1 -1 -1 -1 -1 -1 -1 -1 -1 -1 -1 -1 -1 -1 -1 -1
 MicOpt= -1 -1 -1 -1
 NAtoms=     44 NQM=       44 NQMF=       0 NMMI=      0 NMMIF=      0
                NMic=       0 NMicF=      0.
                    Isotopes and Nuclear Properties:
 (Nuclear quadrupole moments (NQMom) in fm**2, nuclear magnetic moments (NMagM)
  in nuclear magnetons)

  Atom         1           2           3           4           5           6           7           8           9          10
 IAtWgt=          12          12          12          12          12          12          16          12          12          12
 AtmWgt=  12.0000000  12.0000000  12.0000000  12.0000000  12.0000000  12.0000000  15.9949146  12.0000000  12.0000000  12.0000000
 NucSpn=           0           0           0           0           0           0           0           0           0           0
 AtZEff=  -0.0000000  -0.0000000  -0.0000000  -0.0000000  -0.0000000  -0.0000000  -0.0000000  -0.0000000  -0.0000000  -0.0000000
 NQMom=    0.0000000   0.0000000   0.0000000   0.0000000   0.0000000   0.0000000   0.0000000   0.0000000   0.0000000   0.0000000
 NMagM=    0.0000000   0.0000000   0.0000000   0.0000000   0.0000000   0.0000000   0.0000000   0.0000000   0.0000000   0.0000000
 AtZNuc=   6.0000000   6.0000000   6.0000000   6.0000000   6.0000000   6.0000000   8.0000000   6.0000000   6.0000000   6.0000000

  Atom        11          12          13          14          15          16          17          18          19          20
 IAtWgt=          12          12          12          12          12          12          12          12          12          14
 AtmWgt=  12.0000000  12.0000000  12.0000000  12.0000000  12.0000000  12.0000000  12.0000000  12.0000000  12.0000000  14.0030740
 NucSpn=           0           0           0           0           0           0           0           0           0           2
 AtZEff=  -0.0000000  -0.0000000  -0.0000000  -0.0000000  -0.0000000  -0.0000000  -0.0000000  -0.0000000  -0.0000000  -0.0000000
 NQMom=    0.0000000   0.0000000   0.0000000   0.0000000   0.0000000   0.0000000   0.0000000   0.0000000   0.0000000   2.0440000
 NMagM=    0.0000000   0.0000000   0.0000000   0.0000000   0.0000000   0.0000000   0.0000000   0.0000000   0.0000000   0.4037610
 AtZNuc=   6.0000000   6.0000000   6.0000000   6.0000000   6.0000000   6.0000000   6.0000000   6.0000000   6.0000000   7.0000000

  Atom        21          22          23          24          25          26          27          28          29          30
 IAtWgt=           1           1           1           1           1           1           1           1           1           1
 AtmWgt=   1.0078250   1.0078250   1.0078250   1.0078250   1.0078250   1.0078250   1.0078250   1.0078250   1.0078250   1.0078250
 NucSpn=           1           1           1           1           1           1           1           1           1           1
 AtZEff=  -0.0000000  -0.0000000  -0.0000000  -0.0000000  -0.0000000  -0.0000000  -0.0000000  -0.0000000  -0.0000000  -0.0000000
 NQMom=    0.0000000   0.0000000   0.0000000   0.0000000   0.0000000   0.0000000   0.0000000   0.0000000   0.0000000   0.0000000
 NMagM=    2.7928460   2.7928460   2.7928460   2.7928460   2.7928460   2.7928460   2.7928460   2.7928460   2.7928460   2.7928460
 AtZNuc=   1.0000000   1.0000000   1.0000000   1.0000000   1.0000000   1.0000000   1.0000000   1.0000000   1.0000000   1.0000000

  Atom        31          32          33          34          35          36          37          38          39          40
 IAtWgt=           1           1           1           1           1           1           1           1           1           1
 AtmWgt=   1.0078250   1.0078250   1.0078250   1.0078250   1.0078250   1.0078250   1.0078250   1.0078250   1.0078250   1.0078250
 NucSpn=           1           1           1           1           1           1           1           1           1           1
 AtZEff=  -0.0000000  -0.0000000  -0.0000000  -0.0000000  -0.0000000  -0.0000000  -0.0000000  -0.0000000  -0.0000000  -0.0000000
 NQMom=    0.0000000   0.0000000   0.0000000   0.0000000   0.0000000   0.0000000   0.0000000   0.0000000   0.0000000   0.0000000
 NMagM=    2.7928460   2.7928460   2.7928460   2.7928460   2.7928460   2.7928460   2.7928460   2.7928460   2.7928460   2.7928460
 AtZNuc=   1.0000000   1.0000000   1.0000000   1.0000000   1.0000000   1.0000000   1.0000000   1.0000000   1.0000000   1.0000000

  Atom        41          42          43          44
 IAtWgt=           1           1           1           1
 AtmWgt=   1.0078250   1.0078250   1.0078250   1.0078250
 NucSpn=           1           1           1           1
 AtZEff=  -0.0000000  -0.0000000  -0.0000000  -0.0000000
 NQMom=    0.0000000   0.0000000   0.0000000   0.0000000
 NMagM=    2.7928460   2.7928460   2.7928460   2.7928460
 AtZNuc=   1.0000000   1.0000000   1.0000000   1.0000000
 Leave Link  101 at Sun Aug  6 05:45:40 2023, MaxMem=   104857600 cpu:               0.2 elap:               0.2
 (Enter /private/chem/g16E03/g16/l103.exe)

 GradGradGradGradGradGradGradGradGradGradGradGradGradGradGradGradGradGrad
 Berny optimization.
 Initialization pass.
                           ----------------------------
                           !    Initial Parameters    !
                           ! (Angstroms and Degrees)  !
 --------------------------                            --------------------------
 ! Name  Definition              Value          Derivative Info.                !
 --------------------------------------------------------------------------------
 ! R1    R(1,2)                  1.3552         estimate D2E/DX2                !
 ! R2    R(1,21)                 1.07           estimate D2E/DX2                !
 ! R3    R(1,22)                 1.07           estimate D2E/DX2                !
 ! R4    R(2,3)                  1.5547         estimate D2E/DX2                !
 ! R5    R(2,6)                  1.5351         estimate D2E/DX2                !
 ! R6    R(3,4)                  1.5566         estimate D2E/DX2                !
 ! R7    R(3,23)                 1.07           estimate D2E/DX2                !
 ! R8    R(3,24)                 1.07           estimate D2E/DX2                !
 ! R9    R(4,5)                  1.5201         estimate D2E/DX2                !
 ! R10   R(4,10)                 1.5362         estimate D2E/DX2                !
 ! R11   R(4,18)                 1.548          estimate D2E/DX2                !
 ! R12   R(5,6)                  1.5513         estimate D2E/DX2                !
 ! R13   R(5,25)                 1.07           estimate D2E/DX2                !
 ! R14   R(5,26)                 1.07           estimate D2E/DX2                !
 ! R15   R(6,7)                  1.43           estimate D2E/DX2                !
 ! R16   R(6,8)                  1.5472         estimate D2E/DX2                !
 ! R17   R(7,27)                 0.96           estimate D2E/DX2                !
 ! R18   R(8,9)                  1.5417         estimate D2E/DX2                !
 ! R19   R(8,28)                 1.07           estimate D2E/DX2                !
 ! R20   R(8,29)                 1.07           estimate D2E/DX2                !
 ! R21   R(9,10)                 1.5192         estimate D2E/DX2                !
 ! R22   R(9,30)                 1.07           estimate D2E/DX2                !
 ! R23   R(9,31)                 1.07           estimate D2E/DX2                !
 ! R24   R(10,11)                1.5358         estimate D2E/DX2                !
 ! R25   R(10,32)                1.07           estimate D2E/DX2                !
 ! R26   R(11,12)                1.3433         estimate D2E/DX2                !
 ! R27   R(11,17)                1.511          estimate D2E/DX2                !
 ! R28   R(12,13)                1.551          estimate D2E/DX2                !
 ! R29   R(12,33)                1.07           estimate D2E/DX2                !
 ! R30   R(13,14)                1.3771         estimate D2E/DX2                !
 ! R31   R(13,34)                1.07           estimate D2E/DX2                !
 ! R32   R(14,15)                1.5512         estimate D2E/DX2                !
 ! R33   R(14,35)                1.07           estimate D2E/DX2                !
 ! R34   R(15,16)                1.54           estimate D2E/DX2                !
 ! R35   R(15,17)                1.3436         estimate D2E/DX2                !
 ! R36   R(16,36)                1.07           estimate D2E/DX2                !
 ! R37   R(16,37)                1.07           estimate D2E/DX2                !
 ! R38   R(16,38)                1.07           estimate D2E/DX2                !
 ! R39   R(16,43)                1.2181         estimate D2E/DX2                !
 ! R40   R(17,18)                1.5401         estimate D2E/DX2                !
 ! R41   R(18,19)                1.54           estimate D2E/DX2                !
 ! R42   R(18,39)                1.07           estimate D2E/DX2                !
 ! R43   R(19,20)                1.47           estimate D2E/DX2                !
 ! R44   R(19,40)                1.07           estimate D2E/DX2                !
 ! R45   R(19,41)                1.07           estimate D2E/DX2                !
 ! R46   R(20,42)                1.0            estimate D2E/DX2                !
 ! R47   R(20,43)                1.0            estimate D2E/DX2                !
 ! R48   R(20,44)                1.0            estimate D2E/DX2                !
 ! R49   R(36,43)                0.5982         estimate D2E/DX2                !
 ! A1    A(2,1,21)             120.0            estimate D2E/DX2                !
 ! A2    A(2,1,22)             120.0            estimate D2E/DX2                !
 ! A3    A(21,1,22)            120.0            estimate D2E/DX2                !
 ! A4    A(1,2,3)              126.794          estimate D2E/DX2                !
 ! A5    A(1,2,6)              126.7573         estimate D2E/DX2                !
 ! A6    A(3,2,6)              106.4473         estimate D2E/DX2                !
 ! A7    A(2,3,4)              102.3522         estimate D2E/DX2                !
 ! A8    A(2,3,23)             114.0328         estimate D2E/DX2                !
 ! A9    A(2,3,24)             108.898          estimate D2E/DX2                !
 ! A10   A(4,3,23)             113.5485         estimate D2E/DX2                !
 ! A11   A(4,3,24)             109.3507         estimate D2E/DX2                !
 ! A12   A(23,3,24)            108.4459         estimate D2E/DX2                !
 ! A13   A(3,4,5)               99.3017         estimate D2E/DX2                !
 ! A14   A(3,4,10)             113.3001         estimate D2E/DX2                !
 ! A15   A(3,4,18)             112.4143         estimate D2E/DX2                !
 ! A16   A(5,4,10)             111.4475         estimate D2E/DX2                !
 ! A17   A(5,4,18)             119.2716         estimate D2E/DX2                !
 ! A18   A(10,4,18)            101.6798         estimate D2E/DX2                !
 ! A19   A(4,5,6)               99.943          estimate D2E/DX2                !
 ! A20   A(4,5,25)             114.0536         estimate D2E/DX2                !
 ! A21   A(4,5,26)             110.3264         estimate D2E/DX2                !
 ! A22   A(6,5,25)             113.1274         estimate D2E/DX2                !
 ! A23   A(6,5,26)             111.2516         estimate D2E/DX2                !
 ! A24   A(25,5,26)            108.0303         estimate D2E/DX2                !
 ! A25   A(2,6,5)              101.8126         estimate D2E/DX2                !
 ! A26   A(2,6,7)              115.7097         estimate D2E/DX2                !
 ! A27   A(2,6,8)              106.5986         estimate D2E/DX2                !
 ! A28   A(5,6,7)              111.9193         estimate D2E/DX2                !
 ! A29   A(5,6,8)              111.6911         estimate D2E/DX2                !
 ! A30   A(7,6,8)              108.9045         estimate D2E/DX2                !
 ! A31   A(6,7,27)             109.4712         estimate D2E/DX2                !
 ! A32   A(6,8,9)              107.3331         estimate D2E/DX2                !
 ! A33   A(6,8,28)             109.7719         estimate D2E/DX2                !
 ! A34   A(6,8,29)             110.387          estimate D2E/DX2                !
 ! A35   A(9,8,28)             111.6881         estimate D2E/DX2                !
 ! A36   A(9,8,29)             108.4675         estimate D2E/DX2                !
 ! A37   A(28,8,29)            109.1743         estimate D2E/DX2                !
 ! A38   A(8,9,10)             108.6443         estimate D2E/DX2                !
 ! A39   A(8,9,30)             110.7914         estimate D2E/DX2                !
 ! A40   A(8,9,31)             108.6064         estimate D2E/DX2                !
 ! A41   A(10,9,30)            110.4522         estimate D2E/DX2                !
 ! A42   A(10,9,31)            108.9467         estimate D2E/DX2                !
 ! A43   A(30,9,31)            109.3554         estimate D2E/DX2                !
 ! A44   A(4,10,9)             110.7828         estimate D2E/DX2                !
 ! A45   A(4,10,11)            101.5513         estimate D2E/DX2                !
 ! A46   A(4,10,32)            111.2006         estimate D2E/DX2                !
 ! A47   A(9,10,11)            114.9568         estimate D2E/DX2                !
 ! A48   A(9,10,32)            108.4436         estimate D2E/DX2                !
 ! A49   A(11,10,32)           109.8113         estimate D2E/DX2                !
 ! A50   A(10,11,12)           131.0792         estimate D2E/DX2                !
 ! A51   A(10,11,17)           106.439          estimate D2E/DX2                !
 ! A52   A(12,11,17)           122.4813         estimate D2E/DX2                !
 ! A53   A(11,12,13)           117.0981         estimate D2E/DX2                !
 ! A54   A(11,12,33)           121.451          estimate D2E/DX2                !
 ! A55   A(13,12,33)           121.4509         estimate D2E/DX2                !
 ! A56   A(12,13,14)           120.4656         estimate D2E/DX2                !
 ! A57   A(12,13,34)           119.7672         estimate D2E/DX2                !
 ! A58   A(14,13,34)           119.7672         estimate D2E/DX2                !
 ! A59   A(13,14,15)           120.4918         estimate D2E/DX2                !
 ! A60   A(13,14,35)           119.7541         estimate D2E/DX2                !
 ! A61   A(15,14,35)           119.7541         estimate D2E/DX2                !
 ! A62   A(14,15,16)           121.4228         estimate D2E/DX2                !
 ! A63   A(14,15,17)           117.1544         estimate D2E/DX2                !
 ! A64   A(16,15,17)           121.4228         estimate D2E/DX2                !
 ! A65   A(15,16,36)           109.4712         estimate D2E/DX2                !
 ! A66   A(15,16,37)           109.4712         estimate D2E/DX2                !
 ! A67   A(15,16,38)           109.4712         estimate D2E/DX2                !
 ! A68   A(15,16,43)           110.4139         estimate D2E/DX2                !
 ! A69   A(36,16,37)           109.4712         estimate D2E/DX2                !
 ! A70   A(36,16,38)           109.4712         estimate D2E/DX2                !
 ! A71   A(37,16,38)           109.4712         estimate D2E/DX2                !
 ! A72   A(37,16,43)            82.1521         estimate D2E/DX2                !
 ! A73   A(38,16,43)           131.2152         estimate D2E/DX2                !
 ! A74   A(11,17,15)           122.3085         estimate D2E/DX2                !
 ! A75   A(11,17,18)           106.8242         estimate D2E/DX2                !
 ! A76   A(15,17,18)           130.8672         estimate D2E/DX2                !
 ! A77   A(4,18,17)            100.7912         estimate D2E/DX2                !
 ! A78   A(4,18,19)            112.5878         estimate D2E/DX2                !
 ! A79   A(4,18,39)            111.299          estimate D2E/DX2                !
 ! A80   A(17,18,19)           114.4484         estimate D2E/DX2                !
 ! A81   A(17,18,39)           109.5413         estimate D2E/DX2                !
 ! A82   A(19,18,39)           108.0749         estimate D2E/DX2                !
 ! A83   A(18,19,20)           109.4712         estimate D2E/DX2                !
 ! A84   A(18,19,40)           109.4712         estimate D2E/DX2                !
 ! A85   A(18,19,41)           109.4712         estimate D2E/DX2                !
 ! A86   A(20,19,40)           109.4712         estimate D2E/DX2                !
 ! A87   A(20,19,41)           109.4712         estimate D2E/DX2                !
 ! A88   A(40,19,41)           109.4712         estimate D2E/DX2                !
 ! A89   A(19,20,42)           109.4712         estimate D2E/DX2                !
 ! A90   A(19,20,43)           109.4712         estimate D2E/DX2                !
 ! A91   A(19,20,44)           109.4712         estimate D2E/DX2                !
 ! A92   A(42,20,43)           109.4712         estimate D2E/DX2                !
 ! A93   A(42,20,44)           109.4712         estimate D2E/DX2                !
 ! A94   A(43,20,44)           109.4712         estimate D2E/DX2                !
 ! A95   A(20,43,36)           117.0234         estimate D2E/DX2                !
 ! A96   L(16,43,20,1,-1)      174.1985         estimate D2E/DX2                !
 ! A97   L(16,43,20,1,-2)      186.242          estimate D2E/DX2                !
 ! D1    D(21,1,2,3)             0.2429         estimate D2E/DX2                !
 ! D2    D(21,1,2,6)           179.7571         estimate D2E/DX2                !
 ! D3    D(22,1,2,3)          -179.7571         estimate D2E/DX2                !
 ! D4    D(22,1,2,6)            -0.2429         estimate D2E/DX2                !
 ! D5    D(1,2,3,4)            165.4446         estimate D2E/DX2                !
 ! D6    D(1,2,3,23)            42.3883         estimate D2E/DX2                !
 ! D7    D(1,2,3,24)           -78.8657         estimate D2E/DX2                !
 ! D8    D(6,2,3,4)            -14.1495         estimate D2E/DX2                !
 ! D9    D(6,2,3,23)          -137.2058         estimate D2E/DX2                !
 ! D10   D(6,2,3,24)           101.5401         estimate D2E/DX2                !
 ! D11   D(1,2,6,5)            161.6497         estimate D2E/DX2                !
 ! D12   D(1,2,6,7)             40.0504         estimate D2E/DX2                !
 ! D13   D(1,2,6,8)            -81.1979         estimate D2E/DX2                !
 ! D14   D(3,2,6,5)            -18.756          estimate D2E/DX2                !
 ! D15   D(3,2,6,7)           -140.3553         estimate D2E/DX2                !
 ! D16   D(3,2,6,8)             98.3965         estimate D2E/DX2                !
 ! D17   D(2,3,4,5)             42.1824         estimate D2E/DX2                !
 ! D18   D(2,3,4,10)           -76.1093         estimate D2E/DX2                !
 ! D19   D(2,3,4,18)           169.3042         estimate D2E/DX2                !
 ! D20   D(23,3,4,5)           165.5648         estimate D2E/DX2                !
 ! D21   D(23,3,4,10)           47.2732         estimate D2E/DX2                !
 ! D22   D(23,3,4,18)          -67.3133         estimate D2E/DX2                !
 ! D23   D(24,3,4,5)           -73.1785         estimate D2E/DX2                !
 ! D24   D(24,3,4,10)          168.5299         estimate D2E/DX2                !
 ! D25   D(24,3,4,18)           53.9434         estimate D2E/DX2                !
 ! D26   D(3,4,5,6)            -54.4572         estimate D2E/DX2                !
 ! D27   D(3,4,5,25)          -175.45           estimate D2E/DX2                !
 ! D28   D(3,4,5,26)            62.7602         estimate D2E/DX2                !
 ! D29   D(10,4,5,6)            65.2114         estimate D2E/DX2                !
 ! D30   D(10,4,5,25)          -55.7814         estimate D2E/DX2                !
 ! D31   D(10,4,5,26)         -177.5713         estimate D2E/DX2                !
 ! D32   D(18,4,5,6)          -176.7838         estimate D2E/DX2                !
 ! D33   D(18,4,5,25)           62.2233         estimate D2E/DX2                !
 ! D34   D(18,4,5,26)          -59.5665         estimate D2E/DX2                !
 ! D35   D(3,4,10,9)            46.9271         estimate D2E/DX2                !
 ! D36   D(3,4,10,11)          -75.634          estimate D2E/DX2                !
 ! D37   D(3,4,10,32)          167.6018         estimate D2E/DX2                !
 ! D38   D(5,4,10,9)           -64.0668         estimate D2E/DX2                !
 ! D39   D(5,4,10,11)          173.3721         estimate D2E/DX2                !
 ! D40   D(5,4,10,32)           56.6079         estimate D2E/DX2                !
 ! D41   D(18,4,10,9)          167.7887         estimate D2E/DX2                !
 ! D42   D(18,4,10,11)          45.2276         estimate D2E/DX2                !
 ! D43   D(18,4,10,32)         -71.5366         estimate D2E/DX2                !
 ! D44   D(3,4,18,17)           76.2835         estimate D2E/DX2                !
 ! D45   D(3,4,18,19)          -46.1024         estimate D2E/DX2                !
 ! D46   D(3,4,18,39)         -167.6267         estimate D2E/DX2                !
 ! D47   D(5,4,18,17)         -168.1454         estimate D2E/DX2                !
 ! D48   D(5,4,18,19)           69.4686         estimate D2E/DX2                !
 ! D49   D(5,4,18,39)          -52.0556         estimate D2E/DX2                !
 ! D50   D(10,4,18,17)         -45.1954         estimate D2E/DX2                !
 ! D51   D(10,4,18,19)        -167.5813         estimate D2E/DX2                !
 ! D52   D(10,4,18,39)          70.8944         estimate D2E/DX2                !
 ! D53   D(4,5,6,2)             45.5227         estimate D2E/DX2                !
 ! D54   D(4,5,6,7)            169.7092         estimate D2E/DX2                !
 ! D55   D(4,5,6,8)            -67.8852         estimate D2E/DX2                !
 ! D56   D(25,5,6,2)           167.1802         estimate D2E/DX2                !
 ! D57   D(25,5,6,7)           -68.6334         estimate D2E/DX2                !
 ! D58   D(25,5,6,8)            53.7722         estimate D2E/DX2                !
 ! D59   D(26,5,6,2)           -71.0013         estimate D2E/DX2                !
 ! D60   D(26,5,6,7)            53.1851         estimate D2E/DX2                !
 ! D61   D(26,5,6,8)           175.5907         estimate D2E/DX2                !
 ! D62   D(2,6,7,27)           178.6722         estimate D2E/DX2                !
 ! D63   D(5,6,7,27)            62.6545         estimate D2E/DX2                !
 ! D64   D(8,6,7,27)           -61.3267         estimate D2E/DX2                !
 ! D65   D(2,6,8,9)            -44.2405         estimate D2E/DX2                !
 ! D66   D(2,6,8,28)          -165.8129         estimate D2E/DX2                !
 ! D67   D(2,6,8,29)            73.7937         estimate D2E/DX2                !
 ! D68   D(5,6,8,9)             66.1527         estimate D2E/DX2                !
 ! D69   D(5,6,8,28)           -55.4198         estimate D2E/DX2                !
 ! D70   D(5,6,8,29)          -175.8131         estimate D2E/DX2                !
 ! D71   D(7,6,8,9)           -169.731          estimate D2E/DX2                !
 ! D72   D(7,6,8,28)            68.6966         estimate D2E/DX2                !
 ! D73   D(7,6,8,29)           -51.6968         estimate D2E/DX2                !
 ! D74   D(6,8,9,10)           -56.0081         estimate D2E/DX2                !
 ! D75   D(6,8,9,30)          -177.5132         estimate D2E/DX2                !
 ! D76   D(6,8,9,31)            62.3616         estimate D2E/DX2                !
 ! D77   D(28,8,9,10)           64.3558         estimate D2E/DX2                !
 ! D78   D(28,8,9,30)          -57.1493         estimate D2E/DX2                !
 ! D79   D(28,8,9,31)         -177.2746         estimate D2E/DX2                !
 ! D80   D(29,8,9,10)         -175.2812         estimate D2E/DX2                !
 ! D81   D(29,8,9,30)           63.2137         estimate D2E/DX2                !
 ! D82   D(29,8,9,31)          -56.9116         estimate D2E/DX2                !
 ! D83   D(8,9,10,4)            55.8276         estimate D2E/DX2                !
 ! D84   D(8,9,10,11)          170.2125         estimate D2E/DX2                !
 ! D85   D(8,9,10,32)          -66.47           estimate D2E/DX2                !
 ! D86   D(30,9,10,4)          177.5401         estimate D2E/DX2                !
 ! D87   D(30,9,10,11)         -68.0749         estimate D2E/DX2                !
 ! D88   D(30,9,10,32)          55.2426         estimate D2E/DX2                !
 ! D89   D(31,9,10,4)          -62.3269         estimate D2E/DX2                !
 ! D90   D(31,9,10,11)          52.0581         estimate D2E/DX2                !
 ! D91   D(31,9,10,32)         175.3756         estimate D2E/DX2                !
 ! D92   D(4,10,11,12)         152.0147         estimate D2E/DX2                !
 ! D93   D(4,10,11,17)         -27.7081         estimate D2E/DX2                !
 ! D94   D(9,10,11,12)          32.3727         estimate D2E/DX2                !
 ! D95   D(9,10,11,17)        -147.3501         estimate D2E/DX2                !
 ! D96   D(32,10,11,12)        -90.213          estimate D2E/DX2                !
 ! D97   D(32,10,11,17)         90.0642         estimate D2E/DX2                !
 ! D98   D(10,11,12,13)       -179.6008         estimate D2E/DX2                !
 ! D99   D(10,11,12,33)          0.3814         estimate D2E/DX2                !
 ! D100  D(17,11,12,13)          0.0841         estimate D2E/DX2                !
 ! D101  D(17,11,12,33)       -179.9338         estimate D2E/DX2                !
 ! D102  D(10,11,17,15)        179.5483         estimate D2E/DX2                !
 ! D103  D(10,11,17,18)         -0.4188         estimate D2E/DX2                !
 ! D104  D(12,11,17,15)         -0.204          estimate D2E/DX2                !
 ! D105  D(12,11,17,18)        179.8288         estimate D2E/DX2                !
 ! D106  D(11,12,13,14)          0.0486         estimate D2E/DX2                !
 ! D107  D(11,12,13,34)       -179.9634         estimate D2E/DX2                !
 ! D108  D(33,12,13,14)       -179.9336         estimate D2E/DX2                !
 ! D109  D(33,12,13,34)          0.0545         estimate D2E/DX2                !
 ! D110  D(12,13,14,15)         -0.0758         estimate D2E/DX2                !
 ! D111  D(12,13,14,35)        179.9282         estimate D2E/DX2                !
 ! D112  D(34,13,14,15)        179.9362         estimate D2E/DX2                !
 ! D113  D(34,13,14,35)         -0.0599         estimate D2E/DX2                !
 ! D114  D(13,14,15,16)        179.9808         estimate D2E/DX2                !
 ! D115  D(13,14,15,17)         -0.0346         estimate D2E/DX2                !
 ! D116  D(35,14,15,16)         -0.0231         estimate D2E/DX2                !
 ! D117  D(35,14,15,17)        179.9615         estimate D2E/DX2                !
 ! D118  D(14,15,16,36)        149.992          estimate D2E/DX2                !
 ! D119  D(14,15,16,37)        -90.008          estimate D2E/DX2                !
 ! D120  D(14,15,16,38)         29.992          estimate D2E/DX2                !
 ! D121  D(14,15,16,43)       -178.6931         estimate D2E/DX2                !
 ! D122  D(17,15,16,36)        -29.992          estimate D2E/DX2                !
 ! D123  D(17,15,16,37)         90.008          estimate D2E/DX2                !
 ! D124  D(17,15,16,38)       -149.992          estimate D2E/DX2                !
 ! D125  D(17,15,16,43)          1.323          estimate D2E/DX2                !
 ! D126  D(14,15,17,11)          0.1686         estimate D2E/DX2                !
 ! D127  D(14,15,17,18)       -179.8729         estimate D2E/DX2                !
 ! D128  D(16,15,17,11)       -179.8468         estimate D2E/DX2                !
 ! D129  D(16,15,17,18)          0.1117         estimate D2E/DX2                !
 ! D130  D(15,16,20,19)         29.1592         estimate D2E/DX2                !
 ! D131  D(15,16,20,42)        149.556          estimate D2E/DX2                !
 ! D132  D(15,16,20,44)        -88.3092         estimate D2E/DX2                !
 ! D133  D(37,16,20,19)        -79.4229         estimate D2E/DX2                !
 ! D134  D(37,16,20,42)         40.9739         estimate D2E/DX2                !
 ! D135  D(37,16,20,44)        163.1086         estimate D2E/DX2                !
 ! D136  D(38,16,20,19)        169.2409         estimate D2E/DX2                !
 ! D137  D(38,16,20,42)        -70.3623         estimate D2E/DX2                !
 ! D138  D(38,16,20,44)         51.7725         estimate D2E/DX2                !
 ! D139  D(11,17,18,4)          28.0685         estimate D2E/DX2                !
 ! D140  D(11,17,18,19)        149.145          estimate D2E/DX2                !
 ! D141  D(11,17,18,39)        -89.3202         estimate D2E/DX2                !
 ! D142  D(15,17,18,4)        -151.8948         estimate D2E/DX2                !
 ! D143  D(15,17,18,19)        -30.8183         estimate D2E/DX2                !
 ! D144  D(15,17,18,39)         90.7165         estimate D2E/DX2                !
 ! D145  D(4,18,19,20)         176.9946         estimate D2E/DX2                !
 ! D146  D(4,18,19,40)          56.9946         estimate D2E/DX2                !
 ! D147  D(4,18,19,41)         -63.0054         estimate D2E/DX2                !
 ! D148  D(17,18,19,20)         62.6707         estimate D2E/DX2                !
 ! D149  D(17,18,19,40)        -57.3293         estimate D2E/DX2                !
 ! D150  D(17,18,19,41)       -177.3293         estimate D2E/DX2                !
 ! D151  D(39,18,19,20)        -59.6653         estimate D2E/DX2                !
 ! D152  D(39,18,19,40)       -179.6653         estimate D2E/DX2                !
 ! D153  D(39,18,19,41)         60.3347         estimate D2E/DX2                !
 ! D154  D(18,19,20,42)        180.0            estimate D2E/DX2                !
 ! D155  D(18,19,20,43)        -60.0            estimate D2E/DX2                !
 ! D156  D(18,19,20,44)         60.0            estimate D2E/DX2                !
 ! D157  D(40,19,20,42)        -60.0            estimate D2E/DX2                !
 ! D158  D(40,19,20,43)         60.0            estimate D2E/DX2                !
 ! D159  D(40,19,20,44)       -180.0            estimate D2E/DX2                !
 ! D160  D(41,19,20,42)         60.0            estimate D2E/DX2                !
 ! D161  D(41,19,20,43)       -180.0            estimate D2E/DX2                !
 ! D162  D(41,19,20,44)        -60.0            estimate D2E/DX2                !
 ! D163  D(19,20,43,36)        119.1726         estimate D2E/DX2                !
 ! D164  D(42,20,43,36)       -120.8274         estimate D2E/DX2                !
 ! D165  D(44,20,43,36)         -0.8274         estimate D2E/DX2                !
 --------------------------------------------------------------------------------
 Trust Radius=3.00D-01 FncErr=1.00D-07 GrdErr=1.00D-06 EigMax=2.50D+02 EigMin=1.00D-04
 Number of steps in this run=    264 maximum allowed number of steps=    264.
 GradGradGradGradGradGradGradGradGradGradGradGradGradGradGradGradGradGrad

 Leave Link  103 at Sun Aug  6 05:45:40 2023, MaxMem=   104857600 cpu:               0.0 elap:               0.0
 (Enter /private/chem/g16E03/g16/l202.exe)
                          Input orientation:                          
 ---------------------------------------------------------------------
 Center     Atomic      Atomic             Coordinates (Angstroms)
 Number     Number       Type             X           Y           Z
 ---------------------------------------------------------------------
      1          6           0        0.000000    0.000000    0.000000
      2          6           0        0.000000    0.000000    1.355200
      3          6           0        1.245001    0.000000    2.286378
      4          6           0        0.630168    0.382134    3.664369
      5          6           0       -0.625880   -0.472749    3.618546
      6          6           0       -1.229839    0.010430    2.273840
      7          8           0       -2.324051   -0.809379    1.854896
      8          6           0       -1.707268    1.479764    2.356551
      9          6           0       -0.456039    2.358947    2.552454
     10          6           0        0.289343    1.875235    3.784639
     11          6           0        1.681056    2.493253    3.984293
     12          6           0        2.158841    3.710369    3.676297
     13          6           0        3.644497    3.993813    4.019723
     14          6           0        4.421138    3.024020    4.613605
     15          6           0        3.822492    1.633124    4.950360
     16          6           0        4.671501    0.532937    5.613967
     17          6           0        2.531507    1.429379    4.638624
     18          6           0        1.631418    0.194374    4.829913
     19          6           0        2.374400   -1.152744    4.760251
     20          7           0        3.354862   -1.228646    5.852877
     21          1           0        0.926639   -0.003929   -0.535000
     22          1           0       -0.926639    0.003929   -0.535000
     23          1           0        2.026268    0.658810    1.969376
     24          1           0        1.639607   -0.993269    2.337399
     25          1           0       -1.282808   -0.327610    4.450580
     26          1           0       -0.367960   -1.510378    3.577281
     27          1           0       -3.032178   -0.752369    2.500578
     28          1           0       -2.399004    1.590600    3.165326
     29          1           0       -2.184823    1.768473    1.443595
     30          1           0       -0.728086    3.388172    2.660097
     31          1           0        0.177133    2.247083    1.697188
     32          1           0       -0.318605    2.065330    4.644385
     33          1           0        1.541422    4.451912    3.213903
     34          1           0        4.069041    4.949562    3.793435
     35          1           0        5.445120    3.231447    4.844548
     36          1           0        4.042089   -0.089395    6.215168
     37          1           0        5.141438   -0.060029    4.857362
     38          1           0        5.420871    0.983821    6.230447
     39          1           0        1.139438    0.253500    5.778258
     40          1           0        2.880339   -1.232857    3.820832
     41          1           0        1.671020   -1.953366    4.855955
     42          1           0        3.837318   -2.103397    5.807642
     43          1           0        4.012227   -0.480400    5.763434
     44          1           0        2.882022   -1.153774    6.730839
 ---------------------------------------------------------------------
                    Distance matrix (angstroms):
                    1          2          3          4          5
     1  C    0.000000
     2  C    1.355200   0.000000
     3  C    2.603373   1.554708   0.000000
     4  C    3.737745   2.423922   1.556568   0.000000
     5  C    3.702580   2.395403   2.344858   1.520060   0.000000
     6  C    2.585143   1.535094   2.474893   2.351884   1.551277
     7  O    3.081712   2.511176   3.685023   3.663510   2.471349
     8  C    3.264629   2.471269   3.303107   2.894613   2.564047
     9  C    3.505371   2.684403   2.920439   2.514755   3.030495
    10  C    4.233641   3.082596   2.583519   1.536221   2.525519
    11  C    4.991678   3.994295   3.047847   2.379819   3.775300
    12  C    5.651778   4.880054   4.066180   3.662531   5.025583
    13  C    6.737290   6.027651   4.971178   4.717698   6.192515
    14  C    7.069407   6.269638   4.964729   4.717209   6.220122
    15  C    6.464102   5.495791   4.050600   3.661923   5.098671
    16  C    7.322811   6.343819   4.806015   4.489548   5.749379
    17  C    5.474348   4.385490   3.038303   2.379282   3.824623
    18  C    5.101702   3.843558   2.580052   1.547982   2.647236
    19  C    5.443030   4.308244   2.953711   2.568881   3.281397
    20  N    6.857175   5.744020   4.322153   3.848134   4.627086
    21  H    1.070000   2.105120   2.839285   4.227486   4.458930
    22  H    1.070000   2.105120   3.560366   4.494595   4.191614
    23  H    2.901419   2.217432   1.070000   2.213288   3.321758
    24  H    3.022966   2.153975   1.070000   2.161376   2.654188
    25  H    4.643338   3.366646   3.343788   2.186629   1.070000
    26  H    3.900458   2.711877   2.559163   2.141365   1.070000
    27  H    4.001632   3.327470   4.348126   4.006780   2.668016
    28  H    4.278378   3.400263   4.072018   3.299291   2.758040
    29  H    3.159892   2.812252   3.949869   3.844209   3.490528
    30  H    4.368745   3.703049   3.938584   3.448142   3.979419
    31  H    2.821560   2.279849   2.556730   2.748286   3.425483
    32  H    5.092878   3.896901   3.502948   2.166507   2.754743
    33  H    5.703040   5.064610   4.557158   4.194805   5.395666
    34  H    7.446167   6.855672   5.894454   5.718732   7.174561
    35  H    7.972529   7.229601   5.884512   5.717969   7.216730
    36  H    7.414498   6.321848   4.823597   4.286037   5.355309
    37  H    7.073327   6.221184   4.668596   4.687248   5.913287
    38  H    8.316984   7.356751   5.827648   5.467872   6.745875
    39  H    5.894985   4.574497   3.502661   2.178172   2.882384
    40  H    4.941158   3.986932   2.559065   2.774156   3.593363
    41  H    5.494383   4.343182   3.255742   2.820959   2.999860
    42  H    7.271726   6.242878   4.852184   4.588823   5.231758
    43  H    7.038887   5.980074   4.469704   4.072881   5.110053
    44  H    7.412249   6.207636   4.874861   4.102816   4.738728
                    6          7          8          9         10
     6  C    0.000000
     7  O    1.430000   0.000000
     8  C    1.547166   2.423273   0.000000
     9  C    2.488358   3.743574   1.541725   0.000000
    10  C    2.840409   4.214366   2.486421   1.519162   0.000000
    11  C    4.190867   5.610935   3.893256   2.575923   1.535797
    12  C    5.209567   6.621325   4.654474   3.150708   2.621923
    13  C    6.532580   7.961199   6.142310   4.651888   3.975009
    14  C    6.818340   8.234257   6.710915   5.336433   4.367908
    15  C    5.943311   7.302582   6.109797   4.958085   3.728360
    16  C    6.801123   8.054202   7.224675   6.244905   4.934725
    17  C    4.664047   6.028069   4.814313   3.760536   2.440364
    18  C    3.841111   5.050146   4.349318   3.772224   2.391455
    19  C    4.530535   5.534837   5.419214   5.021725   3.803674
    20  N    5.946789   6.957707   6.721975   6.187615   4.827949
    21  H    3.541213   4.114285   4.183286   4.126421   4.753597
    22  H    2.825165   2.885452   3.338943   3.911515   4.862065
    23  H    3.333966   4.592816   3.842286   3.064684   2.791375
    24  H    3.040587   3.997149   4.161470   3.959208   3.485115
    25  H    2.203469   2.837933   2.798522   3.391758   2.787053
    26  H    2.180515   2.698944   3.496409   4.003711   3.455057
    27  H    1.970203   0.960000   2.599721   4.039737   4.425564
    28  H    2.158387   2.735461   1.070000   2.177403   2.773405
    29  H    2.166107   2.614168   1.070000   2.137036   3.407841
    30  H    3.436582   4.562333   2.166323   1.070000   2.142134
    31  H    2.704573   3.952562   2.138809   1.070000   2.123279
    32  H    3.266871   4.479622   2.739609   2.116902   1.070000
    33  H    5.318869   6.668580   4.485833   2.967804   2.921079
    34  H    7.401508   8.820144   6.889838   5.359819   4.872133
    35  H    7.844652   9.253448   7.772720   6.390510   5.435508
    36  H    6.583103   7.749715   7.099738   6.296269   4.883681
    37  H    6.875516   8.081451   7.451831   6.518880   5.332804
    38  H    7.799626   9.074405   8.127940   7.068004   5.754058
    39  H    4.237157   5.340246   4.616875   4.169445   2.706881
    40  H    4.564263   5.579418   5.527075   5.063719   4.046579
    41  H    4.351872   5.125977   5.426438   5.331655   4.208911
    42  H    6.529326   7.433784   7.449262   6.995833   5.701770
    43  H    6.316441   7.452068   6.939865   6.191744   4.829546
    44  H    6.174756   7.141192   6.865239   6.398497   4.957517
                   11         12         13         14         15
    11  C    0.000000
    12  C    1.343321   0.000000
    13  C    2.471444   1.550953   0.000000
    14  C    2.861083   2.543149   1.377086   0.000000
    15  C    2.501770   2.950580   2.543741   1.551248   0.000000
    16  C    3.929558   4.490445   3.946392   2.696089   1.540000
    17  C    1.511040   2.503572   2.863234   2.472693   1.343628
    18  C    2.449976   3.737811   4.375458   3.979475   2.623989
    19  C    3.791586   4.987112   5.352436   4.653600   3.145500
    20  N    4.488403   5.528276   5.542420   4.556084   3.036930
    21  H    5.218149   5.748857   6.641852   6.920125   6.415223
    22  H    5.781074   6.402570   7.586828   8.014225   7.436242
    23  H    2.746678   3.499024   4.236134   4.280370   3.614136
    24  H    3.856139   4.917973   5.632120   5.390421   4.300058
    25  H    4.118153   5.361879   6.568004   6.617779   5.491662
    26  H    4.515881   5.800925   6.825810   6.676091   5.415427
    27  H    5.911857   6.945864   8.331389   8.618464   7.660191
    28  H    4.258213   5.052570   6.559674   7.118043   6.472648
    29  H    4.682465   5.255790   6.750522   7.433981   6.957267
    30  H    2.891080   3.077470   4.618969   5.519358   5.388253
    31  H    2.748316   3.159944   4.524141   5.207754   4.924299
    32  H    2.148833   3.127472   4.451452   4.835823   4.174818
    33  H    2.109347   1.070000   2.298288   3.505825   4.020464
    34  H    3.431086   2.279953   1.070000   2.122349   3.521082
    35  H    3.931049   3.520484   2.122211   1.070000   2.280077
    36  H    4.149861   4.942742   4.653025   3.521652   2.148263
    37  H    4.388136   4.950424   4.401829   3.176414   2.148263
    38  H    4.616255   4.959697   4.135560   2.788558   2.148263
    39  H    2.920300   4.172214   4.832982   4.449916   3.128508
    40  H    3.917766   4.997692   5.285978   4.596036   3.221387
    41  H    4.531260   5.805813   6.321616   5.691771   4.183379
    42  H    5.394743   6.415590   6.356871   5.296884   3.833633
    43  H    4.176399   5.035249   4.816050   3.710832   2.272460
    44  H    4.720872   5.789051   5.867637   4.930062   3.438225
                   16         17         18         19         20
    16  C    0.000000
    17  C    2.516838   0.000000
    18  C    3.157763   1.540126   0.000000
    19  C    2.974395   2.589755   1.540000   0.000000
    20  N    2.212191   3.036020   2.457987   1.470000   0.000000
    21  H    7.219557   5.603246   5.414640   5.608517   6.942707
    22  H    8.332395   6.384126   5.946614   6.346214   7.788162
    23  H    4.505124   2.823815   2.924770   3.345431   4.517658
    24  H    4.717795   3.458373   2.761012   2.536842   3.918685
    25  H    6.127626   4.203733   2.984807   3.761903   4.928112
    26  H    5.806840   4.263276   2.910804   3.007966   4.372313
    27  H    8.407846   6.347114   5.298231   5.873458   7.229041
    28  H    7.556886   5.148449   4.578711   5.731937   6.948241
    29  H    8.119589   5.706747   5.339347   6.349821   7.688472
    30  H    6.784781   4.286769   4.525009   5.886933   6.941133
    31  H    6.203128   3.855356   4.017776   5.076333   6.280797
    32  H    5.309376   2.920206   2.708780   4.197821   5.079871
    33  H    5.560221   3.485083   4.554802   5.873432   6.520850
    34  H    4.814963   3.933198   5.443170   6.406612   6.551458
    35  H    2.910746   3.432054   4.875279   5.353275   5.027756
    36  H    1.070000   2.659703   2.794779   2.455337   1.378923
    37  H    1.070000   3.012959   3.519334   2.976567   2.355540
    38  H    1.070000   3.328791   4.116391   4.000921   3.050567
    39  H    3.546907   2.149258   1.070000   2.130491   2.666539
    40  H    3.088952   2.806771   2.148263   1.070000   2.086720
    41  H    3.969783   3.497232   2.148263   1.070000   2.086720
    42  H    2.771937   3.943634   3.331921   2.034920   1.000000
    43  H    1.218128   2.665518   2.644813   2.034920   1.000000
    44  H    2.700858   3.342589   2.644813   2.034920   1.000000
                   21         22         23         24         25
    21  H    0.000000
    22  H    1.853294   0.000000
    23  H    2.814304   3.926885   0.000000
    24  H    3.120543   3.978780   1.736178   0.000000
    25  H    5.462823   5.009270   4.251986   3.667308   0.000000
    26  H    4.566862   4.417703   3.608748   2.415581   1.731629
    27  H    5.044515   3.770944   5.278398   4.680837   2.653907
    28  H    5.224446   4.286933   4.677773   4.865410   2.564625
    29  H    4.091142   2.934533   4.386466   4.801288   3.774805
    30  H    4.945008   4.658451   3.938651   4.990704   4.161801
    31  H    3.257526   3.351524   2.452753   3.612281   4.042480
    32  H    5.714761   5.607594   3.825232   4.302535   2.587163
    33  H    5.855488   6.319030   4.021385   5.516148   5.687660
    34  H    7.290206   8.255389   5.090251   6.583269   7.544712
    35  H    7.734589   8.941796   5.154961   6.214173   7.621490
    36  H    7.434924   8.382227   4.759212   4.650377   5.614717
    37  H    6.844359   8.118080   4.308304   4.414066   6.442671
    38  H    8.181996   9.328577   5.457627   5.776043   7.058831
    39  H    6.322087   6.647420   3.931708   3.693794   2.822710
    40  H    4.929551   5.915740   2.781318   1.948690   4.306721
    41  H    5.780727   6.296128   3.909221   2.695533   3.395955
    42  H    7.287587   8.207632   5.063791   4.254986   5.586656
    43  H    7.029805   8.018556   4.431333   4.198819   5.457502
    44  H    7.611707   8.284841   5.166170   4.568553   4.819537
                   26         27         28         29         30
    26  H    0.000000
    27  H    2.971856   0.000000
    28  H    3.729733   2.516407   0.000000
    29  H    4.313289   2.861794   1.744096   0.000000
    30  H    4.996670   4.741135   2.505691   2.495072   0.000000
    31  H    4.236790   4.465627   3.036919   2.423265   1.746053
    32  H    3.731868   4.460809   2.596352   3.716981   2.419707
    33  H    6.271099   6.964997   4.869950   4.921355   2.566887
    34  H    7.839931   9.198413   7.315241   7.399452   5.170573
    35  H    7.608072   9.655546   8.187945   8.480731   6.550180
    36  H    5.331620   8.017666   7.321994   8.061886   6.891050
    37  H    5.839143   8.534739   7.902267   8.286816   7.153277
    38  H    6.838924   9.401081   8.421021   9.020877   7.505864
    39  H    3.198095   5.399754   4.597371   5.668788   4.799661
    40  H    3.269217   6.077154   6.022711   6.349417   5.976783
    41  H    2.447179   5.395393   5.655353   6.353251   6.253761
    42  H    4.796931   7.742863   7.714866   8.384656   7.804312
    43  H    5.002615   7.768130   7.221017   7.881743   6.860549
    44  H    4.542519   7.282445   6.937846   7.884630   7.087531
                   31         32         33         34         35
    31  H    0.000000
    32  H    2.994121   0.000000
    33  H    3.003828   3.346901   0.000000
    34  H    5.181177   5.319242   2.640525   0.000000
    35  H    6.215025   5.883911   4.403112   2.439334   0.000000
    36  H    6.388205   5.111345   5.990358   5.590761   3.856823
    37  H    6.320901   5.862983   6.001557   5.232397   3.305480
    38  H    7.045784   6.052011   6.014759   4.847018   2.640668
    39  H    4.642795   2.587332   4.936008   5.880059   5.317789
    40  H    4.891540   4.667924   5.871767   6.295717   5.249391
    41  H    5.463815   4.489241   6.613676   7.384434   6.412975
    42  H    7.015659   6.000263   7.414223   7.338594   5.654480
    43  H    6.219443   5.146758   6.077227   5.776557   4.083546
    44  H    6.649805   4.995992   6.752019   6.876632   5.418277
                   36         37         38         39         40
    36  H    0.000000
    37  H    1.747303   0.000000
    38  H    1.747303   1.747303   0.000000
    39  H    2.955309   4.118538   4.366751   0.000000
    40  H    2.896552   2.749998   4.144178   3.011895   0.000000
    41  H    3.308144   3.953294   4.957589   2.450200   1.747303
    42  H    2.064997   2.603673   3.495328   3.582511   2.370879
    43  H    0.598198   1.507579   2.084784   2.965088   2.370879
    44  H    1.656675   3.132276   3.356405   2.434015   2.911082
                   41         42         43         44
    41  H    0.000000
    42  H    2.370879   0.000000
    43  H    2.911082   1.632993   0.000000
    44  H    2.370879   1.632993   1.632993   0.000000
 Stoichiometry    C18H24NO(1+)
 Framework group  C1[X(C18H24NO)]
 Deg. of freedom   126
 Full point group                 C1      NOp   1
 Largest Abelian subgroup         C1      NOp   1
 Largest concise Abelian subgroup C1      NOp   1
                         Standard orientation:                         
 ---------------------------------------------------------------------
 Center     Atomic      Atomic             Coordinates (Angstroms)
 Number     Number       Type             X           Y           Z
 ---------------------------------------------------------------------
      1          6           0        3.127287    0.289378    2.291082
      2          6           0        2.412747   -0.115875    1.213227
      3          6           0        0.895398   -0.452476    1.174895
      4          6           0        0.597057   -0.471619   -0.352695
      5          6           0        1.832659   -1.214042   -0.835060
      6          6           0        2.940119   -0.323204   -0.213449
      7          8           0        4.231816   -0.928179   -0.315548
      8          6           0        2.987677    1.074781   -0.874586
      9          6           0        1.671915    1.795711   -0.519697
     10          6           0        0.507303    0.931406   -0.971923
     11          6           0       -0.872498    1.395736   -0.482822
     12          6           0       -1.354503    2.625556   -0.238429
     13          6           0       -2.818692    2.723624    0.263557
     14          6           0       -3.572476    1.585452    0.444497
     15          6           0       -2.970229    0.187049    0.147618
     16          6           0       -3.793598   -1.099631    0.342859
     17          6           0       -1.699639    0.146373   -0.287448
     18          6           0       -0.804270   -1.045874   -0.673260
     19          6           0       -1.102785   -2.343677    0.100171
     20          7           0       -2.471551   -2.788544   -0.198947
     21          1           0        2.646257    0.402341    3.240160
     22          1           0        4.172482    0.496384    2.193024
     23          1           0        0.282864    0.233742    1.721526
     24          1           0        0.747623   -1.432845    1.577311
     25          1           0        1.905661   -1.293838   -1.899580
     26          1           0        1.855357   -2.202710   -0.426502
     27          1           0        4.463422   -1.033853   -1.241178
     28          1           0        3.108698    0.970872   -1.932630
     29          1           0        3.803313    1.645258   -0.481912
     30          1           0        1.627596    2.757179   -0.987152
     31          1           0        1.623899    1.915277    0.542517
     32          1           0        0.516061    0.883884   -2.040831
     33          1           0       -0.754329    3.499427   -0.383486
     34          1           0       -3.246090    3.682387    0.470929
     35          1           0       -4.581107    1.666267    0.792395
     36          1           0       -3.463607   -1.843160   -0.352246
     37          1           0       -3.660041   -1.460482    1.341283
     38          1           0       -4.829226   -0.889243    0.175195
     39          1           0       -0.910874   -1.250133   -1.718159
     40          1           0       -1.008075   -2.162741    1.150500
     41          1           0       -0.408591   -3.102518   -0.195050
     42          1           0       -2.665392   -3.631274    0.303280
     43          1           0       -3.120331   -2.079347    0.076959
     44          1           0       -2.560065   -2.957643   -1.180564
 ---------------------------------------------------------------------
 Rotational constants (GHZ):           0.6118878           0.2718040           0.2197954
 Leave Link  202 at Sun Aug  6 05:45:40 2023, MaxMem=   104857600 cpu:               0.0 elap:               0.0
 (Enter /private/chem/g16E03/g16/l301.exe)
 Standard basis: 6-31+G(d,p) (6D, 7F)
 Ernie: Thresh=  0.10000D-02 Tol=  0.10000D-05 Strict=F.
 There are   500 symmetry adapted cartesian basis functions of A   symmetry.
 There are   500 symmetry adapted basis functions of A   symmetry.
   500 basis functions,   808 primitive gaussians,   500 cartesian basis functions
    73 alpha electrons       73 beta electrons
       nuclear repulsion energy      1676.7252132627 Hartrees.
 IExCor= 4336 DFT=T Ex+Corr=M062X ExCW=0 ScaHFX=  0.540000
 ScaDFX=  1.000000  1.000000  1.000000  1.000000 ScalE2=  1.000000  1.000000
 IRadAn=      5 IRanWt=     -1 IRanGd=            0 ICorTp=0 IEmpDi=  4
 NAtoms=   44 NActive=   44 NUniq=   44 SFac= 1.00D+00 NAtFMM=   60 NAOKFM=F Big=F
 Integral buffers will be    131072 words long.
 Raffenetti 2 integral format.
 Two-electron integral symmetry is turned on.
 ------------------------------------------------------------------------------
 Polarizable Continuum Model (PCM)
 =================================
 Model                : PCM.
 Atomic radii         : SMD-Coulomb.
 Polarization charges : Total charges.
 Charge compensation  : None.
 Solution method      : On-the-fly selection.
 Cavity type          : VdW (van der Waals Surface) (Alpha=1.000).
 Cavity algorithm     : GePol (No added spheres)
                        Default sphere list used, NSphG=   44.
                        Lebedev-Laikov grids with approx.  5.0 points / Ang**2.
                        Smoothing algorithm: York/Karplus (Gamma=1.0000).
                        Polarization charges: spherical gaussians, with
                                              point-specific exponents (IZeta= 3).
                        Self-potential: point-specific (ISelfS= 7).
                        Self-field    : sphere-specific E.n sum rule (ISelfD= 2).
 1st derivatives      : Analytical E(r).r(x)/FMM algorithm (CHGder, D1EAlg=3).
                        Cavity 1st derivative terms included.
 Solvent              : Water, Eps=  78.355300 Eps(inf)=   1.777849
 ------------------------------------------------------------------------------
 GePol: Number of generator spheres                  =      44
 GePol: Total number of spheres                      =      44
 GePol: Number of exposed spheres                    =      43 ( 97.73%)
 GePol: Number of points                             =    2715
 GePol: Average weight of points                     =       0.11
 GePol: Minimum weight of points                     =   0.24D-09
 GePol: Maximum weight of points                     =    0.21991
 GePol: Number of points with low weight             =     189
 GePol: Fraction of low-weight points (<1% of avg)   =       6.96%
 GePol: Cavity surface area                          =    290.947 Ang**2
 GePol: Cavity volume                                =    282.653 Ang**3
 ------------------------------------------------------------------------------
 Atomic radii for non-electrostatic terms: SMD-CDS.
 ------------------------------------------------------------------------------
 PCM non-electrostatic energy =         0.0105055891 Hartrees.
 Nuclear repulsion after PCM non-electrostatic terms =     1676.7357188518 Hartrees.
 Leave Link  301 at Sun Aug  6 05:45:40 2023, MaxMem=   104857600 cpu:               0.1 elap:               0.1
 (Enter /private/chem/g16E03/g16/l302.exe)
 NPDir=0 NMtPBC=     1 NCelOv=     1 NCel=       1 NClECP=     1 NCelD=      1
         NCelK=      1 NCelE2=     1 NClLst=     1 CellRange=     0.0.
 One-electron integrals computed using PRISM.
 One-electron integral symmetry used in STVInt
 NBasis=   500 RedAO= T EigKep=  1.60D-06  NBF=   500
 NBsUse=   497 1.00D-06 EigRej=  6.67D-07 NBFU=   497
 Precomputing XC quadrature grid using
 IXCGrd= 4 IRadAn=           5 IRanWt=          -1 IRanGd=           0 AccXCQ= 0.00D+00.
 Generated NRdTot=       0 NPtTot=           0 NUsed=           0 NTot=          32
 NSgBfM=   499   499   499   499   499 MxSgAt=    44 MxSgA2=    44.
 Leave Link  302 at Sun Aug  6 05:45:43 2023, MaxMem=   104857600 cpu:               3.1 elap:               3.1
 (Enter /private/chem/g16E03/g16/l303.exe)
 DipDrv:  MaxL=1.
 Leave Link  303 at Sun Aug  6 05:45:43 2023, MaxMem=   104857600 cpu:               0.1 elap:               0.1
 (Enter /private/chem/g16E03/g16/l401.exe)
 ExpMin= 4.38D-02 ExpMax= 5.48D+03 ExpMxC= 8.25D+02 IAcc=3 IRadAn=         5 AccDes= 0.00D+00
 Harris functional with IExCor= 1009 and IRadAn=       5 diagonalized for initial guess.
 HarFok:  IExCor= 1009 AccDes= 0.00D+00 IRadAn=         5 IDoV= 1 UseB2=F ITyADJ=14
 ICtDFT=  3500011 ScaDFX=  1.000000  1.000000  1.000000  1.000000
 FoFCou: FMM=F IPFlag=           0 FMFlag=      100000 FMFlg1=           0
         NFxFlg=           0 DoJE=T BraDBF=F KetDBF=T FulRan=T
         wScrn=  0.000000 ICntrl=       500 IOpCl=  0 I1Cent=   200000004 NGrid=           0
         NMat0=    1 NMatS0=      1 NMatT0=    0 NMatD0=    1 NMtDS0=    0 NMtDT0=    0
 Petite list used in FoFCou.
 Harris En= -829.155812921780    
 JPrj=0 DoOrth=F DoCkMO=F.
 Leave Link  401 at Sun Aug  6 05:46:32 2023, MaxMem=   104857600 cpu:              49.0 elap:              49.2
 (Enter /private/chem/g16E03/g16/l502.exe)
 Integral symmetry usage will be decided dynamically.
 Closed shell SCF:
 Using DIIS extrapolation, IDIIS=  1040.
 NGot=   104857600 LenX=   104349304 LenY=   104098804
 Requested convergence on RMS density matrix=1.00D-08 within 128 cycles.
 Requested convergence on MAX density matrix=1.00D-06.
 Requested convergence on             energy=1.00D-06.
 No special actions if energy rises.
 Fock matrices will be formed incrementally for  20 cycles.

 Cycle   1  Pass 1  IDiag  1:
 FoFJK:  IHMeth= 1 ICntrl=       0 DoSepK=F KAlg= 0 I1Cent=           0 FoldK=F
 IRaf= 850000000 NMat=       1 IRICut=       1 DoRegI=T DoRafI=F ISym2E= 0 IDoP0=0 IntGTp=1.
 FoFCou: FMM=F IPFlag=           0 FMFlag=      100000 FMFlg1=           0
         NFxFlg=           0 DoJE=F BraDBF=F KetDBF=F FulRan=T
         wScrn=  0.000000 ICntrl=         0 IOpCl=  0 I1Cent=           0 NGrid=           0
         NMat0=    1 NMatS0=      1 NMatT0=    0 NMatD0=    1 NMtDS0=    0 NMtDT0=    0
 Symmetry not used in FoFCou.
 Inv3:  Mode=1 IEnd=    22113675.
 Iteration    1 A*A^-1 deviation from unit magnitude is 6.88D-15 for   2700.
 Iteration    1 A*A^-1 deviation from orthogonality  is 3.13D-15 for   2700    386.
 Iteration    1 A^-1*A deviation from unit magnitude is 5.33D-15 for   2700.
 Iteration    1 A^-1*A deviation from orthogonality  is 4.48D-15 for   2286   2280.
 E= -829.147742650122    
 DIIS: error= 1.71D-02 at cycle   1 NSaved=   1.
 NSaved= 1 IEnMin= 1 EnMin= -829.147742650122     IErMin= 1 ErrMin= 1.71D-02
 ErrMax= 1.71D-02  0.00D+00 EMaxC= 1.00D-01 BMatC= 4.79D-01 BMatP= 4.79D-01
 IDIUse=3 WtCom= 8.29D-01 WtEn= 1.71D-01
 Coeff-Com:  0.100D+01
 Coeff-En:   0.100D+01
 Coeff:      0.100D+01
 Gap=     0.330 Goal=   None    Shift=    0.000
 GapD=    0.330 DampG=1.000 DampE=0.500 DampFc=0.5000 IDamp=-1.
 Damping current iteration by 5.00D-01
 RMSDP=2.94D-02 MaxDP=2.13D+00              OVMax= 1.45D-01

 Cycle   2  Pass 1  IDiag  1:
 RMSU=  1.47D-02    CP:  1.00D+00
 E= -829.378495313125     Delta-E=       -0.230752663003 Rises=F Damp=T
 DIIS: error= 8.64D-03 at cycle   2 NSaved=   2.
 NSaved= 2 IEnMin= 2 EnMin= -829.378495313125     IErMin= 2 ErrMin= 8.64D-03
 ErrMax= 8.64D-03  0.00D+00 EMaxC= 1.00D-01 BMatC= 4.24D-02 BMatP= 4.79D-01
 IDIUse=3 WtCom= 9.14D-01 WtEn= 8.64D-02
 Coeff-Com: -0.211D+00 0.121D+01
 Coeff-En:   0.000D+00 0.100D+01
 Coeff:     -0.192D+00 0.119D+01
 Gap=     0.319 Goal=   None    Shift=    0.000
 RMSDP=1.46D-02 MaxDP=1.80D+00 DE=-2.31D-01 OVMax= 6.31D-02

 Cycle   3  Pass 1  IDiag  1:
 RMSU=  8.65D-03    CP:  7.96D-01  6.83D-01
 E= -829.576886717421     Delta-E=       -0.198391404296 Rises=F Damp=F
 DIIS: error= 2.12D-03 at cycle   3 NSaved=   3.
 NSaved= 3 IEnMin= 3 EnMin= -829.576886717421     IErMin= 3 ErrMin= 2.12D-03
 ErrMax= 2.12D-03  0.00D+00 EMaxC= 1.00D-01 BMatC= 4.89D-03 BMatP= 4.24D-02
 IDIUse=3 WtCom= 9.79D-01 WtEn= 2.12D-02
 Coeff-Com: -0.943D-01 0.311D+00 0.783D+00
 Coeff-En:   0.000D+00 0.000D+00 0.100D+01
 Coeff:     -0.923D-01 0.305D+00 0.788D+00
 Gap=     0.307 Goal=   None    Shift=    0.000
 RMSDP=2.57D-03 MaxDP=4.26D-01 DE=-1.98D-01 OVMax= 1.09D-02

 Cycle   4  Pass 1  IDiag  1:
 RMSU=  1.73D-03    CP:  7.72D-01  7.68D-01  9.24D-01
 E= -829.580116075530     Delta-E=       -0.003229358108 Rises=F Damp=F
 DIIS: error= 9.95D-04 at cycle   4 NSaved=   4.
 NSaved= 4 IEnMin= 4 EnMin= -829.580116075530     IErMin= 4 ErrMin= 9.95D-04
 ErrMax= 9.95D-04  0.00D+00 EMaxC= 1.00D-01 BMatC= 1.01D-03 BMatP= 4.89D-03
 IDIUse=3 WtCom= 9.90D-01 WtEn= 9.95D-03
 Coeff-Com: -0.291D-01 0.724D-01 0.357D+00 0.600D+00
 Coeff-En:   0.000D+00 0.000D+00 0.900D-01 0.910D+00
 Coeff:     -0.288D-01 0.716D-01 0.354D+00 0.603D+00
 Gap=     0.305 Goal=   None    Shift=    0.000
 RMSDP=9.57D-04 MaxDP=1.31D-01 DE=-3.23D-03 OVMax= 7.19D-03

 Cycle   5  Pass 1  IDiag  1:
 RMSU=  4.79D-04    CP:  7.78D-01  7.38D-01  9.56D-01  6.81D-01
 E= -829.580973757112     Delta-E=       -0.000857681582 Rises=F Damp=F
 DIIS: error= 1.69D-04 at cycle   5 NSaved=   5.
 NSaved= 5 IEnMin= 5 EnMin= -829.580973757112     IErMin= 5 ErrMin= 1.69D-04
 ErrMax= 1.69D-04  0.00D+00 EMaxC= 1.00D-01 BMatC= 3.86D-05 BMatP= 1.01D-03
 IDIUse=3 WtCom= 9.98D-01 WtEn= 1.69D-03
 Coeff-Com: -0.600D-02 0.118D-01 0.961D-01 0.238D+00 0.661D+00
 Coeff-En:   0.000D+00 0.000D+00 0.000D+00 0.000D+00 0.100D+01
 Coeff:     -0.599D-02 0.118D-01 0.959D-01 0.237D+00 0.661D+00
 Gap=     0.304 Goal=   None    Shift=    0.000
 RMSDP=1.81D-04 MaxDP=2.39D-02 DE=-8.58D-04 OVMax= 2.14D-03

 Cycle   6  Pass 1  IDiag  1:
 RMSU=  1.46D-04    CP:  7.77D-01  7.38D-01  9.61D-01  6.92D-01  9.27D-01
 E= -829.581008017929     Delta-E=       -0.000034260818 Rises=F Damp=F
 DIIS: error= 4.27D-05 at cycle   6 NSaved=   6.
 NSaved= 6 IEnMin= 6 EnMin= -829.581008017929     IErMin= 6 ErrMin= 4.27D-05
 ErrMax= 4.27D-05  0.00D+00 EMaxC= 1.00D-01 BMatC= 3.94D-06 BMatP= 3.86D-05
 IDIUse=1 WtCom= 1.00D+00 WtEn= 0.00D+00
 Coeff-Com: -0.294D-03-0.448D-03 0.123D-01 0.540D-01 0.281D+00 0.653D+00
 Coeff:     -0.294D-03-0.448D-03 0.123D-01 0.540D-01 0.281D+00 0.653D+00
 Gap=     0.305 Goal=   None    Shift=    0.000
 RMSDP=1.11D-04 MaxDP=1.38D-02 DE=-3.43D-05 OVMax= 8.09D-04

 Cycle   7  Pass 1  IDiag  1:
 RMSU=  6.69D-05    CP:  7.76D-01  7.34D-01  9.64D-01  7.06D-01  9.11D-01
                    CP:  8.73D-01
 E= -829.581012119122     Delta-E=       -0.000004101193 Rises=F Damp=F
 DIIS: error= 1.45D-05 at cycle   7 NSaved=   7.
 NSaved= 7 IEnMin= 7 EnMin= -829.581012119122     IErMin= 7 ErrMin= 1.45D-05
 ErrMax= 1.45D-05  0.00D+00 EMaxC= 1.00D-01 BMatC= 3.92D-07 BMatP= 3.94D-06
 IDIUse=1 WtCom= 1.00D+00 WtEn= 0.00D+00
 Coeff-Com:  0.789D-03-0.199D-02-0.900D-02-0.130D-01 0.770D-02 0.237D+00
 Coeff-Com:  0.779D+00
 Coeff:      0.789D-03-0.199D-02-0.900D-02-0.130D-01 0.770D-02 0.237D+00
 Coeff:      0.779D+00
 Gap=     0.305 Goal=   None    Shift=    0.000
 RMSDP=2.50D-05 MaxDP=2.19D-03 DE=-4.10D-06 OVMax= 3.11D-04

 Cycle   8  Pass 1  IDiag  1:
 RMSU=  1.45D-05    CP:  7.76D-01  7.33D-01  9.64D-01  7.10D-01  9.35D-01
                    CP:  9.16D-01  1.03D+00
 E= -829.581012564952     Delta-E=       -0.000000445830 Rises=F Damp=F
 DIIS: error= 7.47D-06 at cycle   8 NSaved=   8.
 NSaved= 8 IEnMin= 8 EnMin= -829.581012564952     IErMin= 8 ErrMin= 7.47D-06
 ErrMax= 7.47D-06  0.00D+00 EMaxC= 1.00D-01 BMatC= 5.47D-08 BMatP= 3.92D-07
 IDIUse=1 WtCom= 1.00D+00 WtEn= 0.00D+00
 Coeff-Com:  0.350D-03-0.793D-03-0.497D-02-0.105D-01-0.245D-01 0.413D-01
 Coeff-Com:  0.342D+00 0.657D+00
 Coeff:      0.350D-03-0.793D-03-0.497D-02-0.105D-01-0.245D-01 0.413D-01
 Coeff:      0.342D+00 0.657D+00
 Gap=     0.305 Goal=   None    Shift=    0.000
 RMSDP=8.21D-06 MaxDP=8.25D-04 DE=-4.46D-07 OVMax= 1.12D-04

 Cycle   9  Pass 1  IDiag  1:
 RMSU=  5.79D-06    CP:  7.76D-01  7.33D-01  9.65D-01  7.09D-01  9.38D-01
                    CP:  9.25D-01  1.06D+00  1.02D+00
 E= -829.581012630378     Delta-E=       -0.000000065425 Rises=F Damp=F
[...]
 8858,-0.00034140,0.00013323,0.00004498,0.00012538,0.00000021,0.0000623
 4,0.00007659,-0.00005677,-0.00009753,-0.00006365,0.00015126,-0.0001413
 6,0.00027650,0.00051277,0.00044813,-0.00022607,-0.00017110,0.00002833,
 -0.00014501,0.00000943,0.00003178,0.00001768,0.00008503,-0.00005002,0.
 00000998,-0.00012623,0.00026456,-0.00015128,-0.00033946,0.00010508,0.0
 0005942,-0.00171326,0.00154921,0.00049021,0.01099460,0.01145250,0.0069
 1590,-0.15636916,-0.11439144,-0.07181974,-0.00516893,-0.00365918,-0.00
 525026,-0.00000147,0.00000706,0.00001191,0.00000186,0.00000357,-0.0000
 0026,-0.00004345,0.00009577,0.00010004,0.00004925,0.00035315,-0.000318
 24,0.00009933,-0.00012040,0.00007663,-0.00155122,-0.00020398,-0.000452
 98,-0.00002547,0.00000039,-0.00000053,0.00000119,0.00000201,-0.0000035
 1,0.00001027,-0.00003810,0.00001940,0.00001231,-0.00002849,0.00003282,
 -0.00000579,-0.00000591,0.00001842,-0.00001637,-0.00001559,0.00001559,
 0.00001640,0.00006172,-0.00000925,0.00000261,0.00000141,0.00000243,0.0
 0001410,0.00002519,-0.00000480,0.00001170,-0.00004379,0.00004369,0.000
 24755,-0.00009909,-0.00008648,0.00004982,-0.00014044,-0.00008624,-0.00
 017491,-0.00028999,0.00017024,-0.01389674,-0.01666704,-0.01204641,0.16
 611691,-0.00006209,-0.00004503,-0.00007662,0.00008255,0.00022405,0.000
 17903,0.00022055,0.00034325,-0.00024463,-0.00135539,-0.00024888,-0.001
 10062,0.00058908,0.00019132,0.00011178,0.00008957,0.00013022,0.0000988
 2,-0.00007688,-0.00000983,-0.00000333,-0.00001653,-0.00001205,-0.00007
 503,0.00000298,0.00006365,-0.00005247,-0.00014105,0.00013940,-0.000070
 07,-0.00103328,-0.00099564,0.00005762,0.00030373,-0.00003042,0.0003767
 2,-0.00010514,-0.00013798,-0.00004464,-0.00011257,0.00000524,0.0001285
 8,0.00018557,-0.00010458,0.00018364,0.00010635,-0.00001260,0.00004603,
 0.00393268,-0.00145385,-0.00170251,-0.01466109,-0.02070857,-0.00809128
 ,-0.12091086,-0.17561126,-0.08413913,0.01372689,0.01040287,0.01361864,
 0.00000522,0.00000821,-0.00001125,-0.00000095,-0.00002414,-0.00001332,
 -0.00013330,0.00020344,-0.00013956,-0.00005789,-0.00012366,0.00088140,
 -0.00012474,0.00010715,0.00000133,0.00051129,0.00025613,0.00017784,0.0
 0000655,-0.00000900,0.00000030,0.00000259,0.00000223,0.00000390,-0.000
 00346,0.00004819,-0.00000063,-0.00000970,0.00000628,0.00000667,-0.0000
 0382,-0.00000738,0.00002032,0.00003131,0.00010893,-0.00000254,-0.00003
 220,-0.00013781,0.00002390,-0.00000620,-0.00002540,-0.00001130,-0.0000
 5730,-0.00005147,0.00000102,-0.00003632,0.00008523,-0.00006372,0.00001
 131,-0.00000495,-0.00001170,-0.00002786,-0.00000617,-0.00001768,0.0003
 0582,-0.00024052,-0.00024645,-0.00003765,-0.00031494,-0.00036976,0.118
 47684,0.18803721,0.00004060,-0.00000659,0.00000456,0.00002234,-0.00019
 706,0.00006239,-0.00037313,0.00089829,-0.00020450,-0.00076015,0.001240
 22,0.00002463,0.00005821,0.00037815,0.00000359,0.00003114,0.00001715,0
 .00005809,0.00001546,0.00000069,-0.00000927,-0.00000550,0.00002366,-0.
 00002360,-0.00005486,0.00008745,0.00004880,-0.00006713,-0.00003255,-0.
 00020183,0.00000491,-0.00015678,0.00001536,0.00007165,0.00004339,-0.00
 002081,-0.00003928,0.00004027,-0.00001136,-0.00001992,-0.00007015,-0.0
 0003686,0.00009255,-0.00013151,0.00002978,0.00020888,0.00000424,-0.000
 08568,0.00011583,0.00055746,0.00014397,-0.00113562,-0.00322249,-0.0002
 0302,-0.06500337,-0.07381151,-0.09546671,-0.02709171,-0.01873678,-0.02
 632720,-0.00000226,-0.00000939,0.00000487,0.00000160,0.00001818,0.0000
 0975,-0.00001243,0.00003230,0.00002015,-0.00028222,0.00082016,-0.00192
 486,0.00002968,0.00002108,0.00001873,-0.00013284,-0.00001443,-0.000233
 95,0.00000351,0.00000200,0.00000088,0.00000358,-0.00000213,-0.00000238
 ,-0.00000462,0.00000663,0.00000209,-0.00002666,0.00000454,-0.00001321,
 0.00001506,-0.00001136,0.00000813,-0.00001705,-0.00004655,-0.00000385,
 -0.00000290,-0.00000232,-0.00001326,-0.00000376,0.00000226,-0.00000012
 ,0.00000400,-0.00000258,0.00001417,0.00001520,0.00005508,0.00005982,-0
 .00013512,0.00008049,-0.00001067,-0.00003149,0.00007924,0.00009705,0.0
 0001095,0.00015106,0.00003106,0.01003528,0.01144663,0.00969972,0.08414
 089,0.07842765,0.11646404,0.00000744,0.00000024,0.00000660,-0.00000553
 ,-0.00001975,-0.00001036,-0.00003231,0.00004334,0.00002039,0.00013406,
 0.00014340,-0.00011841,0.00000079,-0.00001087,0.00002376,-0.00000212,0
 .00000300,-0.00001494,0.00001533,0.00000070,0.00000880,-0.00000157,0.0
 0000135,0.00000342,-0.00000465,0.00000189,0.00000233,0.00002037,0.0000
 3517,0.00000761,0.00000360,0.00005235,0.00000971,-0.00000785,0.0000033
 5,0.00001051,-0.00000873,-0.00000949,-0.00000793,0.00001593,-0.0000255
 1,0.00002342,-0.00004186,0.00009220,-0.00002348,-0.00022261,-0.0001612
 5,-0.00032692,-0.00015670,0.00010368,-0.00029065,0.00014927,0.00069643
 ,-0.00068131,-0.00334264,0.00508302,0.00000103,-0.11033674,0.12649485,
 0.01947833,-0.00000044,-0.00000003,0.00000141,0.,0.00000283,0.00000201
 ,0.00000840,-0.00001637,0.00000673,0.00002260,-0.00003694,-0.00002329,
 0.00000599,-0.00000374,-0.00000022,-0.00001197,-0.00001405,-0.00000710
 ,-0.00000227,0.00000128,-0.00000090,0.00000099,-0.00000007,0.00000013,
 0.00000207,-0.00000206,0.00000143,-0.00000006,-0.00000325,0.00000059,0
 .00000201,-0.00000078,0.00000183,0.00000088,-0.00000021,-0.00000238,0.
 00000396,0.00000189,-0.00000161,0.00000197,-0.00000502,0.00000031,-0.0
 0000111,0.00000035,0.00000281,-0.00004253,0.00010787,0.00026430,0.0000
 9869,0.00007258,-0.00009930,-0.00004045,-0.00011550,0.00011671,0.00022
 647,-0.00013259,-0.00034922,0.00029775,-0.00047475,0.00042333,-0.00024
 127,0.00000399,0.00024674,0.10993376,-0.00002284,-0.00000794,-0.000016
 77,0.00001684,0.00004097,0.00000817,-0.00001599,-0.00005676,-0.0000486
 4,-0.00015398,-0.00018921,-0.00017078,0.00003960,0.00002974,-0.0000243
 4,0.00001610,-0.00000123,0.00000656,-0.00003169,-0.00000931,-0.0000112
 2,0.00000100,0.00000266,-0.00000784,-0.00000472,-0.00001235,-0.0000125
 0,0.00003762,0.00000981,0.00002782,0.00007787,0.00010247,-0.00002395,-
 0.00003474,0.00001386,-0.00002014,0.00002355,0.00002935,-0.00000054,-0
 .00000457,0.00001262,-0.00002178,0.00006225,-0.00000003,-0.00000093,-0
 .00003353,-0.00006958,-0.00004953,-0.00025492,-0.00007737,0.00008060,0
 .00068993,0.00053756,0.00107640,0.00340955,-0.00870619,0.00182054,0.12
 751069,-0.35741782,-0.04694978,0.00000108,0.00000211,-0.00000249,-0.00
 000097,-0.00000531,-0.00000645,-0.00000784,0.00002409,-0.00000739,-0.0
 0004655,0.00007081,0.00005151,-0.00000853,0.00000402,0.00000326,0.0000
 1855,0.00000960,0.00000182,0.00000248,-0.00000084,-0.00000051,-0.00000
 129,0.00000046,0.00000190,-0.00000566,0.00000123,-0.00000232,-0.000003
 43,0.00000801,0.00000088,-0.00000240,0.00000016,-0.00000199,-0.0000064
 2,-0.00000891,0.00000487,0.00000114,0.00001863,-0.00000393,0.00000053,
 0.00000709,-0.00000181,0.00000851,0.00001049,0.00000166,-0.00004027,-0
 .00009701,-0.00000565,-0.00019642,-0.00012937,0.00006229,0.00000495,0.
 00005056,0.00001992,-0.00011811,0.00005713,0.00011059,-0.00041040,0.00
 028511,-0.00066234,-0.00023404,0.00090108,-0.00088449,-0.13586169,0.37
 320550,-0.00002750,-0.00001093,-0.00002717,0.00002951,0.00000149,-0.00
 000584,-0.00006907,0.00003961,0.00022382,-0.00001561,0.00137886,0.0006
 7576,0.00003459,0.00009291,-0.00013277,0.00003220,-0.00002891,0.000095
 73,-0.00008826,-0.00003040,-0.00006253,0.00003732,0.00000392,-0.000006
 80,-0.00002468,0.00017292,0.00012065,-0.00029402,0.00000190,-0.0004579
 2,-0.00000507,0.00024215,-0.00004167,-0.00003996,0.00000203,-0.0000388
 1,0.00004017,0.00003742,0.00000276,0.00005475,0.00001074,0.00000398,-0
 .00002123,0.00006936,-0.00005055,-0.00008530,-0.00000139,-0.00012520,-
 0.00054659,-0.00011330,0.00001766,-0.00073417,0.00045294,-0.00599715,-
 0.01300202,0.02999477,0.00620701,0.01851223,-0.04405707,-0.06050619,0.
 00000229,-0.00000267,-0.00000566,-0.00000367,-0.00000055,-0.00001357,0
 .00000897,-0.00000198,-0.00002403,0.00006741,-0.00006835,0.00004144,-0
 .00002549,-0.00000556,0.00000658,-0.00001159,-0.00003812,0.00001168,0.
 00001006,-0.00000021,-0.00000239,-0.00000705,0.00000004,0.00000364,-0.
 00001728,-0.00000274,-0.00001015,-0.00004979,0.00004471,-0.00006604,0.
 00000404,-0.00000322,-0.00001480,-0.00001890,0.00000490,0.00002512,0.0
 0000369,0.00003414,-0.00000596,0.00000703,0.00000863,0.00000241,0.0000
 1695,0.00001990,-0.00000038,-0.00002620,0.00001548,0.00010580,0.000024
 05,-0.00002095,-0.00003154,0.00000559,-0.00003595,0.00005362,0.0001382
 5,-0.00030247,0.00011603,0.00056577,-0.00025375,0.00078507,-0.00005764
 ,-0.00035555,0.00099536,-0.01858087,0.04708302,0.06326063,0.00002945,0
 .00000568,0.00002299,-0.00002814,-0.00002006,0.00001451,0.00010023,-0.
 00002386,0.00001867,-0.00024781,-0.00019165,-0.00013305,-0.00000929,-0
 .00003255,0.00007446,-0.00002294,0.00000933,-0.00005128,0.00005327,0.0
 0001292,0.00003227,-0.00001424,0.00000562,0.00000461,-0.00000249,-0.00
 006735,-0.00003527,0.00006644,0.00004823,0.00011576,-0.00005383,-0.000
 13818,0.00006494,-0.00003273,0.00005720,-0.00002811,0.00001557,0.00003
 304,0.00003727,-0.00032985,0.00017161,-0.00029855,0.00094545,0.0000326
 2,0.00013544,0.00029290,-0.00035030,0.00141252,0.00013839,0.00039037,-
 0.00021861,-0.00020101,0.00029690,0.00036610,-0.00312862,-0.00038817,-
 0.00471161,-0.21781484,-0.13321427,-0.11696372,-0.00000177,0.00000033,
 0.00000367,0.00000211,0.00000492,0.00001012,-0.00000166,-0.00001426,0.
 00002739,0.00000512,-0.00001665,-0.00003878,0.00001507,0.00000089,-0.0
 0000678,0.00000579,-0.00001359,-0.00000486,-0.00000606,0.00000182,-0.0
 0000034,0.00000216,-0.00000119,-0.00000218,0.00000644,-0.00000447,0.00
 000425,0.00001752,-0.00001638,0.00002166,0.00000002,0.00000177,0.00000
 641,-0.00000587,-0.00000348,-0.00001371,-0.00000887,-0.00001755,-0.000
 00841,-0.00002919,0.00003563,-0.00000756,-0.00000381,-0.00003427,-0.00
 000358,-0.00075304,-0.00186754,-0.00194340,-0.00094799,-0.00027212,0.0
 0138684,-0.00004190,0.00053234,-0.00031222,-0.00027847,0.00024116,0.00
 009721,0.00034839,0.00002256,0.00098954,0.00111388,0.00040690,0.000115
 96,0.01270597,0.00806832,0.00919668,0.22510579,0.00000778,-0.00000074,
 0.00000637,-0.00000588,-0.00005239,-0.00002606,-0.00006796,0.00002538,
 0.00006538,0.00007812,-0.00012578,0.00003504,-0.00003154,0.00002819,-0
 .00004703,-0.00000604,-0.00001292,0.00001412,-0.00000665,-0.00000703,-
 0.00001438,-0.00000233,0.00000934,-0.00000378,-0.00001534,-0.00005216,
 0.00001866,0.00003934,0.00002764,0.00000772,0.00005910,-0.00008567,0.0
 0010159,-0.00010617,0.00015131,-0.00008242,0.00000058,0.00011526,0.000
 05805,-0.00039746,0.00023417,-0.00030895,0.00101136,-0.00058630,0.0002
 0109,0.00042772,-0.00045703,0.00352438,-0.00019981,0.00004366,-0.00002
 344,0.00018918,0.00129955,0.00032792,0.01246564,0.01288205,0.00549115,
 -0.13066786,-0.16798820,-0.09819746,-0.00000027,-0.00000205,0.00000080
 ,-0.00000057,0.00000539,0.00000013,0.00002679,-0.00003989,0.00002515,0
 .00005873,-0.00009086,-0.00009834,0.00001056,-0.00000926,0.00000381,-0
 .00003720,-0.00003859,-0.00000285,0.00000123,0.00000250,-0.00000083,-0
 .00000131,-0.00000070,0.00000047,-0.00000642,-0.00000896,-0.00000346,0
 .00000369,0.00000146,0.00000019,0.00000254,0.00000149,-0.00000673,-0.0
 0002567,-0.00001958,-0.00000429,-0.00000540,0.00001381,-0.00002694,-0.
 00003056,0.00006396,-0.00002329,0.00001475,-0.00002596,-0.00002267,-0.
 00167156,-0.00672279,-0.00361118,-0.00112339,-0.00035777,0.00120880,0.
 00020001,0.00090566,-0.00108242,0.00007217,0.00002525,-0.00032896,-0.0
 0034387,0.00014020,-0.00040181,0.00092391,-0.00118132,0.00383337,-0.02
 391633,-0.01528695,-0.01488536,0.14250102,0.17856959,0.00000258,0.0000
 0187,0.00000360,0.00000027,0.00001717,0.00002411,0.00007535,-0.0000358
 8,-0.00007088,-0.00008687,-0.00025113,-0.00029574,0.00004212,-0.000059
 09,0.00007062,0.00000450,0.00002064,-0.00003858,0.00003182,0.00001049,
 0.00003094,-0.00001245,-0.00000175,0.00000024,0.00000659,-0.00002750,-
 0.00004107,0.00007859,-0.00000128,0.00012733,-0.00001936,-0.00002001,0
 .00006014,0.00005745,-0.00000910,0.00000902,-0.00007483,-0.00002812,0.
 00003502,0.00006517,-0.00018134,0.00002765,-0.00011676,0.00039722,-0.0
 0048883,-0.00016527,0.00100610,0.00071582,-0.00000375,0.00049383,-0.00
 005911,0.00028647,-0.00022568,0.00115745,-0.01963656,-0.01698542,-0.01
 499939,-0.11900693,-0.10140825,-0.14361470,-0.00000058,0.00000218,0.00
 000053,0.00000139,-0.00000039,0.00000343,-0.00002859,0.00003533,0.0000
 0052,-0.00007796,0.00008321,0.00003940,0.00000427,0.00000701,0.0000001
 0,0.00002555,0.00003321,-0.00001354,-0.00000514,0.00000002,0.00000066,
 0.00000303,-0.00000009,-0.00000129,0.00000713,0.00000371,0.00000518,0.
 00001188,-0.00001436,0.00001962,-0.00000155,-0.00000166,0.00000722,0.0
 0001777,0.00000759,-0.00000233,0.00000657,-0.00001972,-0.00000481,0.00
 000296,-0.00001719,0.00001284,0.00000228,-0.00000833,-0.00001321,-0.00
 109704,-0.00135933,0.00060049,0.00140118,0.00036554,-0.00113409,0.0000
 5165,-0.00065088,-0.00017608,-0.00012843,0.00032339,0.00004055,0.00038
 517,-0.00090041,0.00105748,-0.00046627,0.00323799,-0.00413163,-0.00187
 968,-0.00164265,-0.00259038,0.12675973,0.10404533,0.15058772,-0.000029
 59,-0.00000832,-0.00001898,0.00002181,0.00005130,0.00000610,-0.0000766
 9,-0.00005984,-0.00001988,0.00017338,0.00017332,0.00009857,0.00004520,
 0.00002817,0.00000080,0.00000568,-0.00002631,0.00000137,-0.00004078,-0
 .00001114,-0.00000957,0.00001508,-0.00000053,0.00000006,-0.00000661,0.
 00004690,0.00003533,-0.00006868,0.00003388,-0.00010708,0.00004042,0.00
 001523,-0.00000271,0.00000946,0.00003498,-0.00002375,-0.00002722,0.000
 03641,-0.00001976,0.00000359,-0.00004542,0.00002210,-0.00001769,0.0000
 1588,0.00000415,-0.00003198,-0.00007653,0.00004574,-0.00030369,0.00002
 306,0.00022579,0.00120128,-0.00062573,-0.00178463,0.01266061,0.0001059
 9,-0.00481043,-0.30255415,-0.02445925,0.16568663,0.00000185,0.00000311
 ,-0.00000222,-0.00000151,-0.00000669,-0.00000834,0.00000148,0.00001927
 ,-0.00000429,-0.00002543,0.00004600,0.00008667,-0.00002656,0.00000851,
 0.00000677,0.00001953,-0.00003036,0.00000523,0.00000156,0.00000015,-0.
 00000458,-0.00000434,0.00000102,0.00000163,-0.00000561,-0.00000237,-0.
 00000194,-0.00001513,0.00001298,-0.00001786,0.00000030,-0.00000275,-0.
 00000175,-0.00001424,0.00000589,0.00000731,0.00000191,0.00001537,-0.00
 000163,0.00000191,0.00000466,-0.00000069,0.00001015,0.00000519,-0.0000
 0359,-0.00002772,-0.00005589,-0.00001204,-0.00007081,-0.00006574,-0.00
 004874,0.00001932,0.00000913,0.00000516,-0.00018265,-0.00063603,0.0008
 7086,-0.00005477,0.00176818,-0.00301063,0.00023777,0.00000447,-0.00008
 197,-0.00915488,-0.00248958,0.00496040,-0.01700556,0.00057537,0.013476
 55,0.31527397,-0.00002466,-0.00000870,-0.00001780,0.00003033,-0.000016
 31,-0.00003306,-0.00010878,0.00008610,0.00000954,0.00025630,0.00023021
 ,0.00001333,0.00003886,0.00005740,-0.00005460,0.00003038,-0.00001290,0
 .00004161,-0.00004750,-0.00001860,-0.00003320,0.00001205,0.00000252,-0
 .00000467,-0.00000357,0.00004837,0.00003583,-0.00002587,-0.00005907,-0
 .00012722,0.00001625,0.00013337,-0.00002771,-0.00003605,-0.00002612,0.
 00002871,0.00004923,0.00002729,0.00000458,0.00004224,0.00001226,0.0000
 1478,-0.00010172,0.00008175,-0.00010573,-0.00022561,-0.00005185,0.0001
 2084,-0.00000391,-0.00029131,-0.00019117,-0.00163601,0.00014978,0.0009
 4301,-0.01213510,-0.00185863,0.00854090,-0.02543966,-0.05940118,0.0164
 3003,0.00000097,-0.00000208,-0.00000227,-0.00000275,0.00000038,-0.0000
 0998,0.00000056,-0.00000201,-0.00002538,0.00001358,-0.00002265,-0.0000
 2309,-0.00000527,-0.00000484,0.00000356,-0.00000358,-0.00002506,0.0000
 0031,0.00000483,0.00000077,-0.00000086,-0.00000277,0.00000103,0.000002
 46,-0.00000880,-0.00000077,-0.00000458,-0.00001751,0.00001601,-0.00002
 062,-0.00000052,-0.00000038,-0.00000818,0.00000091,-0.00000844,0.00001
 463,0.00000126,0.00001584,-0.00000439,0.00000639,0.00000178,-0.0000003
 5,0.00001150,0.00001636,0.00000079,0.00000117,0.00004621,0.00007343,0.
 00012222,-0.00006419,-0.00008101,0.00001885,-0.00011652,0.00002211,0.0
 0073009,-0.00048174,-0.00087599,0.00107334,-0.00060202,0.00222655,0.00
 013914,0.00023339,-0.00093298,0.02786446,0.00664105,-0.01949241,-0.016
 19330,-0.00139293,0.01375779,0.02555804,0.05666641,0.00002076,0.000005
 87,0.00001765,-0.00003503,0.00002079,0.00002744,0.00008816,-0.00011666
 ,-0.00005644,-0.00023499,-0.00049228,-0.00013528,-0.00006594,-0.000028
 68,0.00007473,-0.00003156,0.00000574,-0.00007253,0.00005640,0.00001601
 ,0.00004142,-0.00001692,-0.00000170,0.00001874,0.00001877,-0.00007707,
 -0.00006295,0.00007398,0.00000379,0.00019523,-0.00002911,-0.00013079,0
 .00003408,0.00003533,-0.00001716,-0.00000226,-0.00003131,-0.00004388,0
 .00000942,0.00001980,-0.00004298,-0.00000703,-0.00008720,-0.00006496,-
 0.00002663,-0.00020201,-0.00005241,0.00002096,0.00023115,0.00012508,0.
 00015439,0.00070772,-0.00063626,0.00166976,0.02379046,0.00365100,-0.01
 983823,0.16863235,0.01575216,-0.16712274,-0.00000068,0.00000396,0.0000
 0221,0.00000251,-0.00000003,0.00000977,0.00000976,-0.00001176,0.000018
 91,-0.00002517,0.00006017,-0.00003154,0.00001788,-0.00000151,-0.000005
 90,-0.00002401,0.00000599,-0.00001097,-0.00000830,0.00000162,0.0000007
 7,0.00000495,-0.00000033,-0.00000204,0.00001166,-0.00000180,0.00000574
 ,0.00002630,-0.00002264,0.00003065,-0.00000382,0.00000407,0.00000465,0
 .00001111,0.00000332,-0.00001493,-0.00000083,-0.00002090,0.00000628,-0
 .00000400,-0.00000923,0.00000682,-0.00001000,-0.00001210,0.00000063,0.
 00001949,0.00017497,0.00015742,0.00015619,-0.00001720,-0.00020626,-0.0
 0001176,-0.00014190,0.00004414,-0.00067167,0.00076781,0.00017199,-0.00
 275485,0.00183672,-0.00367613,0.00024727,-0.00073937,0.00110781,0.0017
 5430,0.00021897,-0.00253726,-0.01613698,0.00023310,0.01303795,-0.17555
 016,-0.02020755,0.17693956\\0.00000524,0.00000688,-0.00000259,0.000011
 79,0.00000592,-0.00001126,0.00000209,0.00000512,0.00000468,0.00000094,
 -0.00000061,-0.00000856,-0.00000157,-0.00000165,-0.00000915,-0.0000000
 6,-0.00000241,-0.00000334,0.00000547,-0.00000014,-0.00000345,0.0000041
 1,0.00000638,-0.00000672,0.00000143,0.00000402,-0.00000234,0.00000180,
 0.00000068,0.00000259,0.00000032,-0.00001232,0.00000191,-0.00000153,0.
 00000876,0.00001029,-0.00000012,0.00000149,0.00000748,-0.00000245,-0.0
 0001015,0.00001742,0.00001615,0.00001002,0.00000442,-0.00000010,0.0000
 2808,0.00002365,-0.00001178,-0.00000739,-0.00001074,-0.00000161,-0.000
 00057,0.00000981,-0.00000537,-0.00000347,0.00000352,0.00001262,0.00000
 009,-0.00000815,0.00000695,0.00000449,-0.00000371,0.00000677,0.0000045
 3,-0.00000585,0.00000411,0.00000005,0.00000106,0.00000154,-0.00000197,
 0.00000163,-0.00000231,0.00000084,-0.00000638,-0.00000168,0.00000133,-
 0.00000532,0.00000017,0.00000772,-0.00001442,0.00000217,0.00000424,-0.
 00000706,0.00000591,0.00000391,-0.00000711,0.00000392,0.00000307,-0.00
 000189,0.00000496,0.00000232,0.00000044,0.00000009,0.00000251,-0.00000
 325,0.00000284,-0.00000147,0.00000202,0.00000468,-0.00000300,0.0000079
 0,-0.00000005,-0.00000513,0.00000881,-0.00000698,-0.00002415,-0.000005
 50,-0.00001753,-0.00001133,0.00001195,-0.00000527,-0.00000849,0.000003
 93,-0.00000539,-0.00000129,-0.00000028,-0.00000345,-0.00000231,0.00000
 047,-0.00000260,-0.00000136,-0.00000417,-0.00000805,-0.00000320,0.0000
 0349,-0.00001762,-0.00000891,0.00000259,-0.00001054,-0.00000109,0.0000
 0120\\\@


 THERE'S A SUCKER BORN EVERY MINUTE

              -- PHINEAS TAYLOR (P.T.) BARNUM
 Job cpu time:       0 days 12 hours  4 minutes 53.0 seconds.
 Elapsed time:       0 days 12 hours  6 minutes 57.1 seconds.
 File lengths (MBytes):  RWF=   1158 Int=      0 D2E=      0 Chk=     35 Scr=      1
 Normal termination of Gaussian 16 at Tue Aug  8 04:15:37 2023.
 
 Tue Aug  8 04:15:37 AM IDT 2023
 ark
 166664.197u 87.334s 46:29:57.87 99.6%	0+0k 129209+47911272io 1338pf+0w
 
 ****** xrung16 messages ******
 Job 2-3_charged_pka is run from:
 /var/spool/scratch/tchem07/g16/2-3_charged_pka
 166664.192u 87.316s 46:29:57.74 99.6%	0+0k 128856+47911240io 1318pf+0w
