 cputime      unlimited
 filesize     unlimited
 datasize     unlimited
 stacksize    unlimited
 coredumpsize 0 kbytes
 memoryuse    256000 kbytes
 vmemoryuse   unlimited
 descriptors  1024 
 memorylocked 8192 kbytes
 maxproc      382511 
 maxlocks     unlimited
 maxsignal    382511 
 maxmessage   819200 
 maxnice      0 
 maxrtprio    0 
 maxrttime    unlimited
 Sat Jul 29 02:24:18 PM IDT 2023
 ark
 
        *=*=*=*=*=*=*=*=*=*=*=*=*=*=*=*=*
        * xrung16: Running g16          *
        * (Command = time /bin/nice g16 *
        *=*=*=*=*=*=*=*=*=*=*=*=*=*=*=*=*
        g16root=/private/chem/g16E03
        g16 = /private/chem/g16E03/g16/g16
 
 Entering Gaussian System, Link 0=g16
 Initial command:
 /private/chem/g16E03/g16/l1.exe "/var/spool/scratch/tchem07/g16/2-46_neutral_pka/Gau-3382880.inp" -scrdir="/var/spool/scratch/tchem07/g16/2-46_neutral_pka/"
 Entering Link 1 = /private/chem/g16E03/g16/l1.exe PID=   3382881.
  
 Copyright (c) 1988,1990,1992,1993,1995,1998,2003,2009,2016,
            Gaussian, Inc.  All Rights Reserved.
  
 This is part of the Gaussian(R) 16 program.  It is based on
 the Gaussian(R) 09 system (copyright 2009, Gaussian, Inc.),
 the Gaussian(R) 03 system (copyright 2003, Gaussian, Inc.),
 the Gaussian(R) 98 system (copyright 1998, Gaussian, Inc.),
 the Gaussian(R) 94 system (copyright 1995, Gaussian, Inc.),
 the Gaussian 92(TM) system (copyright 1992, Gaussian, Inc.),
 the Gaussian 90(TM) system (copyright 1990, Gaussian, Inc.),
 the Gaussian 88(TM) system (copyright 1988, Gaussian, Inc.),
 the Gaussian 86(TM) system (copyright 1986, Carnegie Mellon
 University), and the Gaussian 82(TM) system (copyright 1983,
 Carnegie Mellon University). Gaussian is a federally registered
 trademark of Gaussian, Inc.
  
 This software contains proprietary and confidential information,
 including trade secrets, belonging to Gaussian, Inc.
  
 This software is provided under written license and may be
 used, copied, transmitted, or stored only in accord with that
 written license.
  
 The following legend is applicable only to US Government
 contracts under FAR:
  
                    RESTRICTED RIGHTS LEGEND
  
 Use, reproduction and disclosure by the US Government is
 subject to restrictions as set forth in subparagraphs (a)
 and (c) of the Commercial Computer Software - Restricted
 Rights clause in FAR 52.227-19.
  
 Gaussian, Inc.
 340 Quinnipiac St., Bldg. 40, Wallingford CT 06492
  
  
 ---------------------------------------------------------------
 Warning -- This program may not be used in any manner that
 competes with the business of Gaussian, Inc. or will provide
 assistance to any competitor of Gaussian, Inc.  The licensee
 of this program is prohibited from giving any competitor of
 Gaussian, Inc. access to this program.  By using this program,
 the user acknowledges that Gaussian, Inc. is engaged in the
 business of creating and licensing software in the field of
 computational chemistry and represents and warrants to the
 licensee that it is not a competitor of Gaussian, Inc. and that
 it will not use this program in any manner prohibited above.
 ---------------------------------------------------------------
  

 Cite this work as:
 Gaussian 16, Revision A.03,
 M. J. Frisch, G. W. Trucks, H. B. Schlegel, G. E. Scuseria, 
 M. A. Robb, J. R. Cheeseman, G. Scalmani, V. Barone, 
 G. A. Petersson, H. Nakatsuji, X. Li, M. Caricato, A. V. Marenich, 
 J. Bloino, B. G. Janesko, R. Gomperts, B. Mennucci, H. P. Hratchian, 
 J. V. Ortiz, A. F. Izmaylov, J. L. Sonnenberg, D. Williams-Young, 
 F. Ding, F. Lipparini, F. Egidi, J. Goings, B. Peng, A. Petrone, 
 T. Henderson, D. Ranasinghe, V. G. Zakrzewski, J. Gao, N. Rega, 
 G. Zheng, W. Liang, M. Hada, M. Ehara, K. Toyota, R. Fukuda, 
 J. Hasegawa, M. Ishida, T. Nakajima, Y. Honda, O. Kitao, H. Nakai, 
 T. Vreven, K. Throssell, J. A. Montgomery, Jr., J. E. Peralta, 
 F. Ogliaro, M. J. Bearpark, J. J. Heyd, E. N. Brothers, K. N. Kudin, 
 V. N. Staroverov, T. A. Keith, R. Kobayashi, J. Normand, 
 K. Raghavachari, A. P. Rendell, J. C. Burant, S. S. Iyengar, 
 J. Tomasi, M. Cossi, J. M. Millam, M. Klene, C. Adamo, R. Cammi, 
 J. W. Ochterski, R. L. Martin, K. Morokuma, O. Farkas, 
 J. B. Foresman, and D. J. Fox, Gaussian, Inc., Wallingford CT, 2016.
 
 ******************************************
 Gaussian 16:  ES64L-G16RevA.03 25-Dec-2016
                29-Jul-2023 
 ******************************************
 %chk=/home/ch/tchem07/g16/2-46_neutral_pka.chk
 -------------------------------------------------------
 #P M062X/6-31+G(d,p) Opt Freq SCRF=(SMD, Solvent=Water)
 -------------------------------------------------------
 1/18=20,19=15,26=3,38=1/1,3;
 2/9=110,12=2,17=6,18=5,40=1/2;
 3/5=1,6=6,7=111,11=2,25=1,30=1,70=32201,71=1,72=1,74=-55/1,2,3;
 4//1;
 5/5=2,38=5,53=1/2;
 6/7=2,8=2,9=2,10=2,28=1/1;
 7//1,2,3,16;
 1/18=20,19=15,26=3/3(2);
 2/9=110/2;
 99//99;
 2/9=110/2;
 3/5=1,6=6,7=111,11=2,25=1,30=1,70=32205,71=1,72=1,74=-55/1,2,3;
 4/5=5,16=3,69=1/1;
 5/5=2,38=5,53=1/2;
 7//1,2,3,16;
 1/18=20,19=15,26=3/3(-5);
 2/9=110/2;
 6/7=2,8=2,9=2,10=2,19=2,28=1/1;
 99/9=1/99;
 Leave Link    1 at Sat Jul 29 14:24:18 2023, MaxMem=           0 cpu:               0.0 elap:               0.0
 (Enter /private/chem/g16E03/g16/l101.exe)
 ----------------
 2-46_neutral_pka
 ----------------
 Symbolic Z-matrix:
 Charge =  0 Multiplicity = 1
 O
 C                    1    B1
 O                    2    B2       1    A1
 C                    2    B3       1    A2       3    D1       0
 C                    4    B4       2    A3       1    D2       0
 C                    5    B5       4    A4       2    D3       0
 C                    6    B6       5    A5       4    D4       0
 C                    6    B7       5    A6       4    D5       0
 C                    8    B8       6    A7       5    D6       0
 C                    9    B9       8    A8       6    D7       0
 C                    10   B10      9    A9       8    D8       0
 C                    11   B11      10   A10      9    D9       0
 C                    12   B12      11   A11      10   D10      0
 C                    13   B13      12   A12      11   D11      0
 C                    14   B14      13   A13      12   D12      0
 C                    15   B15      14   A14      13   D13      0
 C                    16   B16      15   A15      14   D14      0
 C                    17   B17      16   A16      15   D15      0
 C                    16   B18      15   A17      14   D16      0
 O                    19   B19      16   A18      15   D17      0
 C                    16   B20      15   A19      14   D18      0
 O                    15   B21      14   A20      13   D19      0
 H                    3    B22      2    A21      1    D20      0
 H                    4    B23      2    A22      1    D21      0
 H                    7    B24      6    A23      5    D22      0
 H                    7    B25      6    A24      5    D23      0
 H                    7    B26      6    A25      5    D24      0
 H                    8    B27      6    A26      5    D25      0
 H                    9    B28      8    A27      6    D26      0
 H                    10   B29      9    A28      8    D27      0
 H                    12   B30      11   A29      10   D28      0
 H                    14   B31      13   A30      12   D29      0
 H                    14   B32      13   A31      12   D30      0
 H                    17   B33      16   A32      15   D31      0
 H                    17   B34      16   A33      15   D32      0
 H                    18   B35      17   A34      16   D33      0
 H                    18   B36      17   A35      16   D34      0
 H                    19   B37      16   A36      15   D35      0
 H                    19   B38      16   A37      15   D36      0
 H                    20   B39      19   A38      16   D37      0
 H                    21   B40      16   A39      15   D38      0
 H                    21   B41      16   A40      15   D39      0
       Variables:
  B1                    1.2584                   
  B2                    1.43                     
  B3                    1.54                     
  B4                    1.52874                  
  B5                    1.53017                  
  B6                    1.54                     
  B7                    1.36376                  
  B8                    1.55783                  
  B9                    1.36466                  
  B10                   1.53112                  
  B11                   1.54675                  
  B12                   1.53824                  
  B13                   1.53581                  
  B14                   1.49406                  
  B15                   1.51932                  
  B16                   1.54234                  
  B17                   1.51641                  
  B18                   1.54                     
  B19                   1.43                     
  B20                   1.60031                  
  B21                   1.2584                   
  B22                   0.96                     
  B23                   1.07                     
  B24                   1.07                     
  B25                   1.07                     
  B26                   1.07                     
  B27                   1.07                     
  B28                   1.07                     
  B29                   1.07                     
  B30                   1.07                     
  B31                   1.07                     
  B32                   1.07                     
  B33                   1.07                     
  B34                   1.07                     
  B35                   1.07                     
  B36                   1.07                     
  B37                   1.07                     
  B38                   1.07                     
  B39                   0.96                     
  B40                   1.07                     
  B41                   1.07                     
  A1                  120.                       
  A2                  120.                       
  A3                  114.73604                  
  A4                  128.97131                  
  A5                  121.05021                  
  A6                  117.89978                  
  A7                  120.34576                  
  A8                  120.4362                   
  A9                  118.07488                  
  A10                 128.26683                  
  A11                 102.61395                  
  A12                 118.40401                  
  A13                 103.6443                   
  A14                 109.03747                  
  A15                 108.75761                  
  A16                 108.10455                  
  A17                 111.73042                  
  A18                 109.47122                  
  A19                 101.81918                  
  A20                 125.47352                  
  A21                 109.47122                  
  A22                 108.52641                  
  A23                 109.47122                  
  A24                 109.47122                  
  A25                 109.47122                  
  A26                 119.82708                  
  A27                 119.78189                  
  A28                 120.9622                   
  A29                 113.09276                  
  A30                 112.74405                  
  A31                 109.45475                  
  A32                 108.29527                  
  A33                 111.34991                  
  A34                 104.05479                  
  A35                 110.27961                  
  A36                 109.47122                  
  A37                 109.47122                  
  A38                 109.47122                  
  A39                 111.06571                  
  A40                 114.55057                  
  D1                 -180.                       
  D2                  -28.81802                  
  D3                  -32.1498                   
  D4                    1.28867                  
  D5                 -178.5896                   
  D6                   -0.10018                  
  D7                   -0.64048                  
  D8                    0.32543                  
  D9                 -177.22059                  
  D10                 157.80833                  
  D11                 155.07214                  
  D12                  71.92478                  
  D13                  17.68503                  
  D14                -101.26377                  
  D15                  92.90292                  
  D16                 139.97319                  
  D17                -178.88298                  
  D18                  15.62665                  
  D19                -162.4984                   
  D20                  30.                       
  D21                -149.5219                   
  D22                -149.93721                  
  D23                 -29.93721                  
  D24                  90.06279                  
  D25                 179.84926                  
  D26                 179.4514                   
  D27                -179.53861                  
  D28                 -84.08663                  
  D29                 -50.75751                  
  D30                -171.78959                  
  D31                 -32.49449                  
  D32                -152.92054                  
  D33                  71.78917                  
  D34                -169.5854                   
  D35                  61.11702                  
  D36                 -58.88298                  
  D37                 180.                       
  D38                  73.49473                  
  D39                -164.24479                  
 
     8 tetrahedral angles replaced.
 ITRead=  0  0  0  0  0  0  0  0  0  0  0  0  0  0  0  0  0  0  0  0
 ITRead=  0  0  0  0  0  0  0  0  0  0  0  0  0  0  0  0  0  0  0  0
 ITRead=  0  0
 MicOpt= -1 -1 -1 -1 -1 -1 -1 -1 -1 -1 -1 -1 -1 -1 -1 -1 -1 -1 -1 -1
 MicOpt= -1 -1 -1 -1 -1 -1 -1 -1 -1 -1 -1 -1 -1 -1 -1 -1 -1 -1 -1 -1
 MicOpt= -1 -1
 NAtoms=     42 NQM=       42 NQMF=       0 NMMI=      0 NMMIF=      0
                NMic=       0 NMicF=      0.
                    Isotopes and Nuclear Properties:
 (Nuclear quadrupole moments (NQMom) in fm**2, nuclear magnetic moments (NMagM)
  in nuclear magnetons)

  Atom         1           2           3           4           5           6           7           8           9          10
 IAtWgt=          16          12          16          12          12          12          12          12          12          12
 AtmWgt=  15.9949146  12.0000000  15.9949146  12.0000000  12.0000000  12.0000000  12.0000000  12.0000000  12.0000000  12.0000000
 NucSpn=           0           0           0           0           0           0           0           0           0           0
 AtZEff=  -0.0000000  -0.0000000  -0.0000000  -0.0000000  -0.0000000  -0.0000000  -0.0000000  -0.0000000  -0.0000000  -0.0000000
 NQMom=    0.0000000   0.0000000   0.0000000   0.0000000   0.0000000   0.0000000   0.0000000   0.0000000   0.0000000   0.0000000
 NMagM=    0.0000000   0.0000000   0.0000000   0.0000000   0.0000000   0.0000000   0.0000000   0.0000000   0.0000000   0.0000000
 AtZNuc=   8.0000000   6.0000000   8.0000000   6.0000000   6.0000000   6.0000000   6.0000000   6.0000000   6.0000000   6.0000000

  Atom        11          12          13          14          15          16          17          18          19          20
 IAtWgt=          12          12          12          12          12          12          12          12          12          16
 AtmWgt=  12.0000000  12.0000000  12.0000000  12.0000000  12.0000000  12.0000000  12.0000000  12.0000000  12.0000000  15.9949146
 NucSpn=           0           0           0           0           0           0           0           0           0           0
 AtZEff=  -0.0000000  -0.0000000  -0.0000000  -0.0000000  -0.0000000  -0.0000000  -0.0000000  -0.0000000  -0.0000000  -0.0000000
 NQMom=    0.0000000   0.0000000   0.0000000   0.0000000   0.0000000   0.0000000   0.0000000   0.0000000   0.0000000   0.0000000
 NMagM=    0.0000000   0.0000000   0.0000000   0.0000000   0.0000000   0.0000000   0.0000000   0.0000000   0.0000000   0.0000000
 AtZNuc=   6.0000000   6.0000000   6.0000000   6.0000000   6.0000000   6.0000000   6.0000000   6.0000000   6.0000000   8.0000000

  Atom        21          22          23          24          25          26          27          28          29          30
 IAtWgt=          12          16           1           1           1           1           1           1           1           1
 AtmWgt=  12.0000000  15.9949146   1.0078250   1.0078250   1.0078250   1.0078250   1.0078250   1.0078250   1.0078250   1.0078250
 NucSpn=           0           0           1           1           1           1           1           1           1           1
 AtZEff=  -0.0000000  -0.0000000  -0.0000000  -0.0000000  -0.0000000  -0.0000000  -0.0000000  -0.0000000  -0.0000000  -0.0000000
 NQMom=    0.0000000   0.0000000   0.0000000   0.0000000   0.0000000   0.0000000   0.0000000   0.0000000   0.0000000   0.0000000
 NMagM=    0.0000000   0.0000000   2.7928460   2.7928460   2.7928460   2.7928460   2.7928460   2.7928460   2.7928460   2.7928460
 AtZNuc=   6.0000000   8.0000000   1.0000000   1.0000000   1.0000000   1.0000000   1.0000000   1.0000000   1.0000000   1.0000000

  Atom        31          32          33          34          35          36          37          38          39          40
 IAtWgt=           1           1           1           1           1           1           1           1           1           1
 AtmWgt=   1.0078250   1.0078250   1.0078250   1.0078250   1.0078250   1.0078250   1.0078250   1.0078250   1.0078250   1.0078250
 NucSpn=           1           1           1           1           1           1           1           1           1           1
 AtZEff=  -0.0000000  -0.0000000  -0.0000000  -0.0000000  -0.0000000  -0.0000000  -0.0000000  -0.0000000  -0.0000000  -0.0000000
 NQMom=    0.0000000   0.0000000   0.0000000   0.0000000   0.0000000   0.0000000   0.0000000   0.0000000   0.0000000   0.0000000
 NMagM=    2.7928460   2.7928460   2.7928460   2.7928460   2.7928460   2.7928460   2.7928460   2.7928460   2.7928460   2.7928460
 AtZNuc=   1.0000000   1.0000000   1.0000000   1.0000000   1.0000000   1.0000000   1.0000000   1.0000000   1.0000000   1.0000000

  Atom        41          42
 IAtWgt=           1           1
 AtmWgt=   1.0078250   1.0078250
 NucSpn=           1           1
 AtZEff=  -0.0000000  -0.0000000
 NQMom=    0.0000000   0.0000000
 NMagM=    2.7928460   2.7928460
 AtZNuc=   1.0000000   1.0000000
 Leave Link  101 at Sat Jul 29 14:24:18 2023, MaxMem=   104857600 cpu:               0.2 elap:               0.2
 (Enter /private/chem/g16E03/g16/l103.exe)

 GradGradGradGradGradGradGradGradGradGradGradGradGradGradGradGradGradGrad
 Berny optimization.
 Initialization pass.
                           ----------------------------
                           !    Initial Parameters    !
                           ! (Angstroms and Degrees)  !
 --------------------------                            --------------------------
 ! Name  Definition              Value          Derivative Info.                !
 --------------------------------------------------------------------------------
 ! R1    R(1,2)                  1.2584         estimate D2E/DX2                !
 ! R2    R(2,3)                  1.43           estimate D2E/DX2                !
 ! R3    R(2,4)                  1.54           estimate D2E/DX2                !
 ! R4    R(3,23)                 0.96           estimate D2E/DX2                !
 ! R5    R(4,5)                  1.5287         estimate D2E/DX2                !
 ! R6    R(4,13)                 1.5503         estimate D2E/DX2                !
 ! R7    R(4,24)                 1.07           estimate D2E/DX2                !
 ! R8    R(5,6)                  1.5302         estimate D2E/DX2                !
 ! R9    R(5,11)                 1.3333         estimate D2E/DX2                !
 ! R10   R(6,7)                  1.54           estimate D2E/DX2                !
 ! R11   R(6,8)                  1.3638         estimate D2E/DX2                !
 ! R12   R(7,25)                 1.07           estimate D2E/DX2                !
 ! R13   R(7,26)                 1.07           estimate D2E/DX2                !
 ! R14   R(7,27)                 1.07           estimate D2E/DX2                !
 ! R15   R(8,9)                  1.5578         estimate D2E/DX2                !
 ! R16   R(8,28)                 1.07           estimate D2E/DX2                !
 ! R17   R(9,10)                 1.3647         estimate D2E/DX2                !
 ! R18   R(9,29)                 1.07           estimate D2E/DX2                !
 ! R19   R(10,11)                1.5311         estimate D2E/DX2                !
 ! R20   R(10,30)                1.07           estimate D2E/DX2                !
 ! R21   R(11,12)                1.5467         estimate D2E/DX2                !
 ! R22   R(12,13)                1.5382         estimate D2E/DX2                !
 ! R23   R(12,18)                1.5246         estimate D2E/DX2                !
 ! R24   R(12,31)                1.07           estimate D2E/DX2                !
 ! R25   R(13,14)                1.5358         estimate D2E/DX2                !
 ! R26   R(13,21)                1.5809         estimate D2E/DX2                !
 ! R27   R(14,15)                1.4941         estimate D2E/DX2                !
 ! R28   R(14,32)                1.07           estimate D2E/DX2                !
 ! R29   R(14,33)                1.07           estimate D2E/DX2                !
 ! R30   R(15,16)                1.5193         estimate D2E/DX2                !
 ! R31   R(15,22)                1.2584         estimate D2E/DX2                !
 ! R32   R(16,17)                1.5423         estimate D2E/DX2                !
 ! R33   R(16,19)                1.54           estimate D2E/DX2                !
 ! R34   R(16,21)                1.6003         estimate D2E/DX2                !
 ! R35   R(17,18)                1.5164         estimate D2E/DX2                !
 ! R36   R(17,34)                1.07           estimate D2E/DX2                !
 ! R37   R(17,35)                1.07           estimate D2E/DX2                !
 ! R38   R(18,36)                1.07           estimate D2E/DX2                !
 ! R39   R(18,37)                1.07           estimate D2E/DX2                !
 ! R40   R(19,20)                1.43           estimate D2E/DX2                !
 ! R41   R(19,38)                1.07           estimate D2E/DX2                !
 ! R42   R(19,39)                1.07           estimate D2E/DX2                !
 ! R43   R(20,40)                0.96           estimate D2E/DX2                !
 ! R44   R(21,41)                1.07           estimate D2E/DX2                !
 ! R45   R(21,42)                1.07           estimate D2E/DX2                !
 ! A1    A(1,2,3)              120.0            estimate D2E/DX2                !
 ! A2    A(1,2,4)              120.0            estimate D2E/DX2                !
 ! A3    A(3,2,4)              120.0            estimate D2E/DX2                !
 ! A4    A(2,3,23)             109.4712         estimate D2E/DX2                !
 ! A5    A(2,4,5)              114.736          estimate D2E/DX2                !
 ! A6    A(2,4,13)             112.2225         estimate D2E/DX2                !
 ! A7    A(2,4,24)             108.5264         estimate D2E/DX2                !
 ! A8    A(5,4,13)             103.0332         estimate D2E/DX2                !
 ! A9    A(5,4,24)             107.8643         estimate D2E/DX2                !
 ! A10   A(13,4,24)            110.2892         estimate D2E/DX2                !
 ! A11   A(4,5,6)              128.9713         estimate D2E/DX2                !
 ! A12   A(4,5,11)             109.103          estimate D2E/DX2                !
 ! A13   A(6,5,11)             121.9255         estimate D2E/DX2                !
 ! A14   A(5,6,7)              121.0502         estimate D2E/DX2                !
 ! A15   A(5,6,8)              117.8998         estimate D2E/DX2                !
 ! A16   A(7,6,8)              121.0499         estimate D2E/DX2                !
 ! A17   A(6,7,25)             109.4712         estimate D2E/DX2                !
 ! A18   A(6,7,26)             109.4712         estimate D2E/DX2                !
 ! A19   A(6,7,27)             109.4712         estimate D2E/DX2                !
 ! A20   A(25,7,26)            109.4712         estimate D2E/DX2                !
 ! A21   A(25,7,27)            109.4712         estimate D2E/DX2                !
 ! A22   A(26,7,27)            109.4712         estimate D2E/DX2                !
 ! A23   A(6,8,9)              120.3458         estimate D2E/DX2                !
 ! A24   A(6,8,28)             119.8271         estimate D2E/DX2                !
 ! A25   A(9,8,28)             119.8271         estimate D2E/DX2                !
 ! A26   A(8,9,10)             120.4362         estimate D2E/DX2                !
 ! A27   A(8,9,29)             119.7819         estimate D2E/DX2                !
 ! A28   A(10,9,29)            119.7818         estimate D2E/DX2                !
 ! A29   A(9,10,11)            118.0749         estimate D2E/DX2                !
 ! A30   A(9,10,30)            120.9622         estimate D2E/DX2                !
 ! A31   A(11,10,30)           120.9628         estimate D2E/DX2                !
 ! A32   A(5,11,10)            121.3001         estimate D2E/DX2                !
 ! A33   A(5,11,12)            110.4085         estimate D2E/DX2                !
 ! A34   A(10,11,12)           128.2668         estimate D2E/DX2                !
 ! A35   A(11,12,13)           102.6139         estimate D2E/DX2                !
 ! A36   A(11,12,18)           104.631          estimate D2E/DX2                !
 ! A37   A(11,12,31)           113.0928         estimate D2E/DX2                !
 ! A38   A(13,12,18)           111.7195         estimate D2E/DX2                !
 ! A39   A(13,12,31)           109.7081         estimate D2E/DX2                !
 ! A40   A(18,12,31)           114.3983         estimate D2E/DX2                !
 ! A41   A(4,13,12)            100.4945         estimate D2E/DX2                !
 ! A42   A(4,13,14)            111.0282         estimate D2E/DX2                !
 ! A43   A(4,13,21)            121.2543         estimate D2E/DX2                !
 ! A44   A(12,13,14)           118.404          estimate D2E/DX2                !
 ! A45   A(12,13,21)           107.5683         estimate D2E/DX2                !
 ! A46   A(14,13,21)            99.2319         estimate D2E/DX2                !
 ! A47   A(13,14,15)           103.6443         estimate D2E/DX2                !
 ! A48   A(13,14,32)           112.744          estimate D2E/DX2                !
 ! A49   A(13,14,33)           109.4548         estimate D2E/DX2                !
 ! A50   A(15,14,32)           113.125          estimate D2E/DX2                !
 ! A51   A(15,14,33)           109.0996         estimate D2E/DX2                !
 ! A52   A(32,14,33)           108.6339         estimate D2E/DX2                !
 ! A53   A(14,15,16)           109.0375         estimate D2E/DX2                !
 ! A54   A(14,15,22)           125.4735         estimate D2E/DX2                !
 ! A55   A(16,15,22)           125.4887         estimate D2E/DX2                !
 ! A56   A(15,16,17)           108.7576         estimate D2E/DX2                !
 ! A57   A(15,16,19)           111.7304         estimate D2E/DX2                !
 ! A58   A(15,16,21)           101.8192         estimate D2E/DX2                !
 ! A59   A(17,16,19)           107.7098         estimate D2E/DX2                !
 ! A60   A(17,16,21)           110.6905         estimate D2E/DX2                !
 ! A61   A(19,16,21)           115.9226         estimate D2E/DX2                !
 ! A62   A(16,17,18)           108.1045         estimate D2E/DX2                !
 ! A63   A(16,17,34)           108.2953         estimate D2E/DX2                !
 ! A64   A(16,17,35)           111.3499         estimate D2E/DX2                !
 ! A65   A(18,17,34)           115.1625         estimate D2E/DX2                !
 ! A66   A(18,17,35)           104.4435         estimate D2E/DX2                !
 ! A67   A(34,17,35)           109.4841         estimate D2E/DX2                !
 ! A68   A(12,18,17)           117.1693         estimate D2E/DX2                !
 ! A69   A(12,18,36)           104.4235         estimate D2E/DX2                !
 ! A70   A(12,18,37)           109.9208         estimate D2E/DX2                !
 ! A71   A(17,18,36)           104.0548         estimate D2E/DX2                !
 ! A72   A(17,18,37)           110.2796         estimate D2E/DX2                !
 ! A73   A(36,18,37)           110.595          estimate D2E/DX2                !
 ! A74   A(16,19,20)           109.4712         estimate D2E/DX2                !
 ! A75   A(16,19,38)           109.4712         estimate D2E/DX2                !
 ! A76   A(16,19,39)           109.4712         estimate D2E/DX2                !
 ! A77   A(20,19,38)           109.4712         estimate D2E/DX2                !
 ! A78   A(20,19,39)           109.4712         estimate D2E/DX2                !
 ! A79   A(38,19,39)           109.4712         estimate D2E/DX2                !
 ! A80   A(19,20,40)           109.4712         estimate D2E/DX2                !
 ! A81   A(13,21,16)            97.6912         estimate D2E/DX2                !
 ! A82   A(13,21,41)           109.871          estimate D2E/DX2                !
 ! A83   A(13,21,42)           115.7496         estimate D2E/DX2                !
 ! A84   A(16,21,41)           111.0657         estimate D2E/DX2                !
 ! A85   A(16,21,42)           114.5506         estimate D2E/DX2                !
 ! A86   A(41,21,42)           107.6812         estimate D2E/DX2                !
 ! D1    D(1,2,3,23)            30.0            estimate D2E/DX2                !
 ! D2    D(4,2,3,23)          -150.0            estimate D2E/DX2                !
 ! D3    D(1,2,4,5)            -28.818          estimate D2E/DX2                !
 ! D4    D(1,2,4,13)            88.3399         estimate D2E/DX2                !
 ! D5    D(1,2,4,24)          -149.5219         estimate D2E/DX2                !
 ! D6    D(3,2,4,5)            151.182          estimate D2E/DX2                !
 ! D7    D(3,2,4,13)           -91.6601         estimate D2E/DX2                !
 ! D8    D(3,2,4,24)            30.4781         estimate D2E/DX2                !
 ! D9    D(2,4,5,6)            -32.1498         estimate D2E/DX2                !
 ! D10   D(2,4,5,11)           148.0048         estimate D2E/DX2                !
 ! D11   D(13,4,5,6)          -154.4305         estimate D2E/DX2                !
 ! D12   D(13,4,5,11)           25.7241         estimate D2E/DX2                !
 ! D13   D(24,4,5,6)            88.9179         estimate D2E/DX2                !
 ! D14   D(24,4,5,11)          -90.9274         estimate D2E/DX2                !
 ! D15   D(2,4,13,12)         -160.2932         estimate D2E/DX2                !
 ! D16   D(2,4,13,14)           73.5849         estimate D2E/DX2                !
 ! D17   D(2,4,13,21)          -42.1604         estimate D2E/DX2                !
 ! D18   D(5,4,13,12)          -36.3386         estimate D2E/DX2                !
 ! D19   D(5,4,13,14)         -162.4605         estimate D2E/DX2                !
 ! D20   D(5,4,13,21)           81.7942         estimate D2E/DX2                !
 ! D21   D(24,4,13,12)          78.5768         estimate D2E/DX2                !
 ! D22   D(24,4,13,14)         -47.5451         estimate D2E/DX2                !
 ! D23   D(24,4,13,21)        -163.2904         estimate D2E/DX2                !
 ! D24   D(4,5,6,7)              1.2887         estimate D2E/DX2                !
 ! D25   D(4,5,6,8)           -178.5896         estimate D2E/DX2                !
 ! D26   D(11,5,6,7)          -178.8835         estimate D2E/DX2                !
 ! D27   D(11,5,6,8)             1.2383         estimate D2E/DX2                !
 ! D28   D(4,5,11,10)          178.2635         estimate D2E/DX2                !
 ! D29   D(4,5,11,12)           -3.3959         estimate D2E/DX2                !
 ! D30   D(6,5,11,10)           -1.5949         estimate D2E/DX2                !
 ! D31   D(6,5,11,12)          176.7458         estimate D2E/DX2                !
 ! D32   D(5,6,7,25)          -149.9372         estimate D2E/DX2                !
 ! D33   D(5,6,7,26)           -29.9372         estimate D2E/DX2                !
 ! D34   D(5,6,7,27)            90.0628         estimate D2E/DX2                !
 ! D35   D(8,6,7,25)            29.9372         estimate D2E/DX2                !
 ! D36   D(8,6,7,26)           149.9372         estimate D2E/DX2                !
 ! D37   D(8,6,7,27)           -90.0628         estimate D2E/DX2                !
 ! D38   D(5,6,8,9)             -0.1002         estimate D2E/DX2                !
 ! D39   D(5,6,8,28)           179.8493         estimate D2E/DX2                !
 ! D40   D(7,6,8,9)           -179.9784         estimate D2E/DX2                !
 ! D41   D(7,6,8,28)            -0.029          estimate D2E/DX2                !
 ! D42   D(6,8,9,10)            -0.6405         estimate D2E/DX2                !
 ! D43   D(6,8,9,29)           179.4514         estimate D2E/DX2                !
 ! D44   D(28,8,9,10)          179.4101         estimate D2E/DX2                !
 ! D45   D(28,8,9,29)           -0.498          estimate D2E/DX2                !
 ! D46   D(8,9,10,11)            0.3254         estimate D2E/DX2                !
 ! D47   D(8,9,10,30)         -179.5386         estimate D2E/DX2                !
 ! D48   D(29,9,10,11)        -179.7665         estimate D2E/DX2                !
 ! D49   D(29,9,10,30)           0.3695         estimate D2E/DX2                !
 ! D50   D(9,10,11,5)            0.7985         estimate D2E/DX2                !
 ! D51   D(9,10,11,12)        -177.2206         estimate D2E/DX2                !
 ! D52   D(30,10,11,5)        -179.3375         estimate D2E/DX2                !
 ! D53   D(30,10,11,12)          2.6434         estimate D2E/DX2                !
 ! D54   D(5,11,12,13)         -20.3857         estimate D2E/DX2                !
 ! D55   D(5,11,12,18)        -137.1515         estimate D2E/DX2                !
 ! D56   D(5,11,12,31)          97.7193         estimate D2E/DX2                !
 ! D57   D(10,11,12,13)        157.8083         estimate D2E/DX2                !
 ! D58   D(10,11,12,18)         41.0426         estimate D2E/DX2                !
 ! D59   D(10,11,12,31)        -84.0866         estimate D2E/DX2                !
 ! D60   D(11,12,13,4)          34.0712         estimate D2E/DX2                !
 ! D61   D(11,12,13,14)        155.0721         estimate D2E/DX2                !
 ! D62   D(11,12,13,21)        -93.6723         estimate D2E/DX2                !
 ! D63   D(18,12,13,4)         145.6489         estimate D2E/DX2                !
 ! D64   D(18,12,13,14)        -93.3502         estimate D2E/DX2                !
 ! D65   D(18,12,13,21)         17.9054         estimate D2E/DX2                !
 ! D66   D(31,12,13,4)         -86.3991         estimate D2E/DX2                !
 ! D67   D(31,12,13,14)         34.6018         estimate D2E/DX2                !
 ! D68   D(31,12,13,21)        145.8574         estimate D2E/DX2                !
 ! D69   D(11,12,18,17)        154.4229         estimate D2E/DX2                !
 ! D70   D(11,12,18,36)         39.9754         estimate D2E/DX2                !
 ! D71   D(11,12,18,37)        -78.6794         estimate D2E/DX2                !
 ! D72   D(13,12,18,17)         44.1228         estimate D2E/DX2                !
 ! D73   D(13,12,18,36)        -70.3247         estimate D2E/DX2                !
 ! D74   D(13,12,18,37)        171.0205         estimate D2E/DX2                !
 ! D75   D(31,12,18,17)        -81.277          estimate D2E/DX2                !
 ! D76   D(31,12,18,36)        164.2756         estimate D2E/DX2                !
 ! D77   D(31,12,18,37)         45.6208         estimate D2E/DX2                !
 ! D78   D(4,13,14,15)        -172.6243         estimate D2E/DX2                !
 ! D79   D(4,13,14,32)          64.6934         estimate D2E/DX2                !
 ! D80   D(4,13,14,33)         -56.3387         estimate D2E/DX2                !
 ! D81   D(12,13,14,15)         71.9248         estimate D2E/DX2                !
 ! D82   D(12,13,14,32)        -50.7575         estimate D2E/DX2                !
 ! D83   D(12,13,14,33)       -171.7896         estimate D2E/DX2                !
 ! D84   D(21,13,14,15)        -43.8957         estimate D2E/DX2                !
 ! D85   D(21,13,14,32)       -166.578          estimate D2E/DX2                !
 ! D86   D(21,13,14,33)         72.3899         estimate D2E/DX2                !
 ! D87   D(4,13,21,16)         173.6097         estimate D2E/DX2                !
 ! D88   D(4,13,21,41)          57.8579         estimate D2E/DX2                !
 ! D89   D(4,13,21,42)         -64.3423         estimate D2E/DX2                !
 ! D90   D(12,13,21,16)        -71.8306         estimate D2E/DX2                !
 ! D91   D(12,13,21,41)        172.4176         estimate D2E/DX2                !
 ! D92   D(12,13,21,42)         50.2174         estimate D2E/DX2                !
 ! D93   D(14,13,21,16)         52.0157         estimate D2E/DX2                !
 ! D94   D(14,13,21,41)        -63.7361         estimate D2E/DX2                !
 ! D95   D(14,13,21,42)        174.0637         estimate D2E/DX2                !
 ! D96   D(13,14,15,16)         17.685          estimate D2E/DX2                !
 ! D97   D(13,14,15,22)       -162.4984         estimate D2E/DX2                !
 ! D98   D(32,14,15,16)        140.1149         estimate D2E/DX2                !
 ! D99   D(32,14,15,22)        -40.0686         estimate D2E/DX2                !
 ! D100  D(33,14,15,16)        -98.8507         estimate D2E/DX2                !
 ! D101  D(33,14,15,22)         80.9658         estimate D2E/DX2                !
 ! D102  D(14,15,16,17)       -101.2638         estimate D2E/DX2                !
 ! D103  D(14,15,16,19)        139.9732         estimate D2E/DX2                !
 ! D104  D(14,15,16,21)         15.6266         estimate D2E/DX2                !
 ! D105  D(22,15,16,17)         78.9197         estimate D2E/DX2                !
 ! D106  D(22,15,16,19)        -39.8434         estimate D2E/DX2                !
 ! D107  D(22,15,16,21)       -164.1899         estimate D2E/DX2                !
 ! D108  D(15,16,17,18)         92.9029         estimate D2E/DX2                !
 ! D109  D(15,16,17,34)        -32.4945         estimate D2E/DX2                !
 ! D110  D(15,16,17,35)       -152.9205         estimate D2E/DX2                !
 ! D111  D(19,16,17,18)       -145.8383         estimate D2E/DX2                !
 ! D112  D(19,16,17,34)         88.7643         estimate D2E/DX2                !
 ! D113  D(19,16,17,35)        -31.6618         estimate D2E/DX2                !
 ! D114  D(21,16,17,18)        -18.1658         estimate D2E/DX2                !
 ! D115  D(21,16,17,34)       -143.5632         estimate D2E/DX2                !
 ! D116  D(21,16,17,35)         96.0108         estimate D2E/DX2                !
 ! D117  D(15,16,19,20)       -178.883          estimate D2E/DX2                !
 ! D118  D(15,16,19,38)         61.117          estimate D2E/DX2                !
 ! D119  D(15,16,19,39)        -58.883          estimate D2E/DX2                !
 ! D120  D(17,16,19,20)         61.7331         estimate D2E/DX2                !
 ! D121  D(17,16,19,38)        -58.2669         estimate D2E/DX2                !
 ! D122  D(17,16,19,39)       -178.2669         estimate D2E/DX2                !
 ! D123  D(21,16,19,20)        -62.8501         estimate D2E/DX2                !
 ! D124  D(21,16,19,38)        177.1499         estimate D2E/DX2                !
 ! D125  D(21,16,19,39)         57.1499         estimate D2E/DX2                !
 ! D126  D(15,16,21,13)        -41.3128         estimate D2E/DX2                !
 ! D127  D(15,16,21,41)         73.4947         estimate D2E/DX2                !
 ! D128  D(15,16,21,42)       -164.2448         estimate D2E/DX2                !
 ! D129  D(17,16,21,13)         74.1683         estimate D2E/DX2                !
 ! D130  D(17,16,21,41)       -171.0241         estimate D2E/DX2                !
 ! D131  D(17,16,21,42)        -48.7637         estimate D2E/DX2                !
 ! D132  D(19,16,21,13)       -162.7987         estimate D2E/DX2                !
 ! D133  D(19,16,21,41)        -47.9912         estimate D2E/DX2                !
 ! D134  D(19,16,21,42)         74.2693         estimate D2E/DX2                !
 ! D135  D(16,17,18,12)        -42.8631         estimate D2E/DX2                !
 ! D136  D(16,17,18,36)         71.7892         estimate D2E/DX2                !
 ! D137  D(16,17,18,37)       -169.5854         estimate D2E/DX2                !
 ! D138  D(34,17,18,12)         78.367          estimate D2E/DX2                !
 ! D139  D(34,17,18,36)       -166.9808         estimate D2E/DX2                !
 ! D140  D(34,17,18,37)        -48.3554         estimate D2E/DX2                !
 ! D141  D(35,17,18,12)       -161.5312         estimate D2E/DX2                !
 ! D142  D(35,17,18,36)        -46.8789         estimate D2E/DX2                !
 ! D143  D(35,17,18,37)         71.7465         estimate D2E/DX2                !
 ! D144  D(16,19,20,40)        180.0            estimate D2E/DX2                !
 ! D145  D(38,19,20,40)        -60.0            estimate D2E/DX2                !
 ! D146  D(39,19,20,40)         60.0            estimate D2E/DX2                !
 --------------------------------------------------------------------------------
 Trust Radius=3.00D-01 FncErr=1.00D-07 GrdErr=1.00D-06 EigMax=2.50D+02 EigMin=1.00D-04
 Number of steps in this run=    252 maximum allowed number of steps=    252.
 GradGradGradGradGradGradGradGradGradGradGradGradGradGradGradGradGradGrad

 Leave Link  103 at Sat Jul 29 14:24:18 2023, MaxMem=   104857600 cpu:               0.0 elap:               0.0
 (Enter /private/chem/g16E03/g16/l202.exe)
                          Input orientation:                          
 ---------------------------------------------------------------------
 Center     Atomic      Atomic             Coordinates (Angstroms)
 Number     Number       Type             X           Y           Z
 ---------------------------------------------------------------------
      1          8           0        0.000000    0.000000    0.000000
      2          6           0        0.000000    0.000000    1.258400
      3          8           0        1.238416    0.000000    1.973400
      4          6           0       -1.333679    0.000000    2.028400
      5          6           0       -2.495921    0.669285    1.294707
      6          6           0       -2.467385    1.848424    0.319901
      7          6           0       -1.139376    2.521173   -0.074310
      8          6           0       -3.655355    2.286387   -0.186811
      9          6           0       -4.989157    1.594011    0.223575
     10          6           0       -4.981961    0.534469    1.083592
     11          6           0       -3.633111    0.059935    1.631095
     12          6           0       -3.346433   -1.140728    2.563112
     13          6           0       -1.862247   -1.434553    2.285560
     14          6           0       -1.040322   -2.137479    3.375989
     15          6           0       -1.557857   -3.538942    3.359050
     16          6           0       -2.296806   -3.778606    2.053356
     17          6           0       -3.813391   -3.681682    2.316760
     18          6           0       -4.248721   -2.254849    2.044486
     19          6           0       -2.008822   -5.180295    1.484203
     20          8           0       -2.705430   -5.344421    0.246181
     21          6           0       -1.797613   -2.545969    1.163177
     22          8           0       -1.403245   -4.385669    4.277047
     23          1           0        1.907463    0.452548    1.454577
     24          1           0       -1.190932    0.514589    2.955612
     25          1           0       -1.313898    3.553920   -0.293113
     26          1           0       -0.444593    2.440606    0.735434
     27          1           0       -0.736929    2.036420   -0.939152
     28          1           0       -3.671464    3.110398   -0.869193
     29          1           0       -5.916919    1.950636   -0.172627
     30          1           0       -5.892371    0.048014    1.365400
     31          1           0       -3.480855   -0.909285    3.599097
     32          1           0       -1.133428   -1.666659    4.332315
     33          1           0       -0.007517   -2.142246    3.096362
     34          1           0       -4.005276   -4.034484    3.308532
     35          1           0       -4.368870   -4.268628    1.615449
     36          1           0       -4.196585   -2.166014    0.979455
     37          1           0       -5.250925   -2.101236    2.386377
     38          1           0       -2.339044   -5.922692    2.180407
     39          1           0       -0.957271   -5.288989    1.318902
     40          1           0       -2.525908   -6.218201   -0.108616
     41          1           0       -0.784906   -2.685106    0.847006
     42          1           0       -2.387940   -2.360048    0.290338
 ---------------------------------------------------------------------
                    Distance matrix (angstroms):
                    1          2          3          4          5
     1  O    0.000000
     2  C    1.258400   0.000000
     3  O    2.329803   1.430000   0.000000
     4  C    2.427572   1.540000   2.572683   0.000000
     5  C    2.890299   2.584353   3.854068   1.528743   0.000000
     6  C    3.099516   3.222645   4.459114   2.760603   1.530174
     7  C    2.767672   3.070929   4.025335   3.288686   2.672810
     8  C    4.315563   4.547287   5.817480   3.940165   2.480766
     9  C    5.242380   5.338860   6.662239   4.377303   2.866822
    10  C    5.126380   5.013597   6.306387   3.806348   2.498628
    11  C    3.982909   3.652669   4.883907   2.334273   1.333291
    12  C    4.366855   3.768574   4.761288   2.374523   2.368199
    13  C    3.278672   2.565339   3.430670   1.550309   2.410284
    14  C    4.128969   3.183594   3.424722   2.543790   3.785290
    15  C    5.121938   4.400427   4.718398   3.787479   4.780235
    16  C    4.875392   4.492787   5.175138   3.899500   4.516517
    17  C    5.784817   5.405262   6.260466   4.448247   4.659531
    18  C    5.226461   4.873798   5.932797   3.685386   3.490707
    19  C    5.750972   5.560738   6.133459   5.252373   5.872883
    20  O    5.995231   6.075095   6.862948   5.798349   6.108024
    21  C    3.326613   3.118083   4.044242   2.728700   3.292839
    22  O    6.284610   5.505944   5.614201   4.929031   5.969996
    23  H    2.441108   1.970203   0.960000   3.322510   4.411612
    24  H    3.227811   2.136270   2.670445   1.070000   2.117907
    25  H    3.800341   4.094370   4.927650   4.245016   3.498496
    26  H    2.587486   2.535294   3.212731   2.901516   2.767366
    27  H    2.360525   3.085338   4.065951   3.648217   3.154876
    28  H    4.889757   5.261262   6.470072   4.851377   3.467478
    29  H    6.232553   6.392398   7.720702   5.445695   3.936770
    30  H    6.048691   5.893538   7.156822   4.606902   3.453527
    31  H    5.088875   4.292087   5.073580   2.811450   2.961788
    32  H    4.778218   3.675781   3.737363   2.850593   4.066951
    33  H    3.765200   2.822654   2.720774   2.736506   4.164471
    34  H    6.577665   6.043372   6.749515   5.005320   5.334705
    35  H    6.318060   6.118472   7.056272   5.253960   5.290916
    36  H    4.823098   4.730830   5.934541   3.740071   3.321228
    37  H    6.138583   5.767126   6.833542   4.459614   4.056794
    38  H    6.730794   6.434245   6.922381   6.009339   6.653062
    39  H    5.534372   5.375261   5.763923   5.349624   6.153784
    40  H    6.712528   6.849450   7.561148   6.682385   7.029059
    41  H    2.922891   2.827564   3.545757   2.984399   3.792090
    42  H    3.369923   3.494171   4.642519   3.114828   3.193317
                    6          7          8          9         10
     6  C    0.000000
     7  C    1.540000   0.000000
     8  C    1.363760   2.529413   0.000000
     9  C    2.536403   3.971043   1.557828   0.000000
    10  C    2.938162   4.478079   2.538311   1.364665   0.000000
    11  C    2.505363   3.896770   2.874433   2.484625   1.531124
    12  C    3.839239   5.023606   4.404841   3.956106   2.769516
    13  C    3.874010   4.662542   4.813860   4.816799   3.880000
    14  C    5.221456   5.798052   6.253201   6.281324   5.284970
    15  C    6.251990   6.977684   7.134920   6.924755   5.787476
    16  C    5.890453   6.749357   6.606674   6.281868   5.172342
    17  C    6.031687   7.165401   6.473846   5.796273   4.545568
    18  C    4.794185   6.080108   5.094467   4.321769   3.039943
    19  C    7.139241   7.905536   7.826537   7.507516   6.454345
    20  O    7.197161   8.026382   7.701887   7.304640   6.359654
    21  C    4.524423   5.257431   5.350265   5.311143   4.431197
    22  O    7.460249   8.167521   8.337527   8.065108   6.871181
    23  H    4.730249   3.987472   6.082932   7.098005   6.899892
    24  H    3.217984   3.634483   4.368920   4.801634   4.228091
    25  H    2.148263   1.070000   2.664650   4.197111   4.946422
    26  H    2.148263   1.070000   3.344145   4.650998   4.933790
    27  H    2.148263   1.070000   3.024188   4.430475   4.936360
    28  H    2.111002   2.718547   1.070000   2.286895   3.488006
    29  H    3.486018   4.812494   2.286395   1.070000   2.111341
    30  H    4.008126   5.547994   3.524757   2.123597   1.070000
    31  H    4.402864   5.544771   4.957405   4.464931   3.265809
    32  H    5.498611   6.079171   6.512234   6.510021   5.496397
    33  H    5.448406   5.751673   6.610501   6.857788   5.996761
    34  H    6.775370   7.914142   7.231408   6.493453   5.174901
    35  H    6.535474   7.706251   6.835602   6.057442   4.871190
    36  H    4.420504   5.694442   4.634326   3.916288   2.814297
    37  H    5.255306   6.657814   5.330889   4.289649   2.952377
    38  H    7.991759   8.821667   8.644384   8.206895   7.062786
    39  H    7.363499   7.935542   8.181268   8.051804   7.082808
    40  H    8.078211   8.848746   8.579614   8.198086   7.283688
    41  H    4.864306   5.299039   5.833009   6.031189   5.294989
    42  H    4.209326   5.051554   4.839769   4.733431   3.966916
                   11         12         13         14         15
    11  C    0.000000
    12  C    1.546748   0.000000
    13  C    2.407858   1.538239   0.000000
    14  C    3.820450   2.640536   1.535805   0.000000
    15  C    4.499380   3.095796   2.381908   1.494064   0.000000
    16  C    4.086369   2.884435   2.395275   2.453856   1.519316
    17  C    3.808193   2.595223   2.976159   3.346108   2.488810
    18  C    2.430657   1.524586   2.535007   3.475701   3.258485
    19  C    5.488160   4.389914   3.833306   3.711546   2.532283
    20  O    5.655586   4.842529   4.489665   4.780456   3.777120
    21  C    3.221605   2.516617   1.580875   2.374213   2.421845
    22  O    5.633539   4.152493   3.589678   2.449077   1.258400
    23  H    5.557271   5.600965   4.296789   4.369153   5.618492
    24  H    2.815190   2.745963   2.167669   2.689398   4.090050
    25  H    4.614029   5.859090   5.642261   6.777106   7.981635
    26  H    4.078781   4.958532   4.407890   5.318485   6.624026
    27  H    4.347475   5.400892   4.869576   6.011150   7.087533
    28  H    3.944393   5.473430   5.820852   7.244632   8.158376
    29  H    3.470438   4.862941   5.826025   7.286052   7.849180
    30  H    2.274861   3.054410   4.391652   5.688693   5.968996
    31  H    2.198999   1.070000   2.149692   2.741247   3.266595
    32  H    4.065235   2.881680   2.185007   1.070000   2.152401
    33  H    4.487932   3.526436   2.144353   1.070000   2.103169
    34  H    4.440334   3.059991   3.521177   3.520530   2.497594
    35  H    4.390677   3.424499   3.842420   4.326722   3.387385
    36  H    2.386836   2.069284   2.773100   3.963103   3.809237
    37  H    2.803290   2.140304   3.455108   4.325485   4.080667
    38  H    6.145583   4.901885   4.514619   4.176594   2.771591
    39  H    5.989038   4.946132   4.075547   3.764375   2.754191
    40  H    6.608138   5.795871   5.390344   5.567920   4.487790
    41  H    4.032657   3.448412   2.189517   2.600171   2.763486
    42  H    3.033875   2.751535   2.261372   3.374441   3.390549
                   16         17         18         19         20
    16  C    0.000000
    17  C    1.542338   0.000000
    18  C    2.476265   1.516409   0.000000
    19  C    1.540000   2.489068   3.726834   0.000000
    20  O    2.425826   2.877426   3.893726   1.430000   0.000000
    21  C    1.600313   2.585335   2.620951   2.662205   3.081615
    22  O    2.472202   3.185456   4.197792   2.966165   4.343130
    23  H    5.994754   7.110794   6.751044   6.860546   7.506255
    24  H    4.524217   4.989399   4.224927   5.938492   6.630439
    25  H    7.761312   8.087820   6.915154   8.940262   9.022620
    26  H    6.621647   7.164621   6.183228   7.815728   8.121417
    27  H    6.723306   7.263764   6.296806   7.718247   7.730254
    28  H    7.608505   7.503519   6.132587   8.777154   8.582613
    29  H    7.133333   6.507295   5.038311   8.298703   7.981662
    30  H    5.295696   4.374686   2.909626   6.513929   6.362987
    31  H    3.467606   3.072645   2.194761   4.988103   5.613712
    32  H    3.317744   3.912158   3.909627   4.606918   5.717834
    33  H    3.001063   4.178794   4.371148   3.979198   5.065195
    34  H    2.135372   1.070000   2.196401   2.937156   3.575407
    35  H    2.173783   1.070000   2.062477   2.533414   2.408166
    36  H    2.713462   2.057297   1.070000   3.758586   3.586574
    37  H    3.413400   2.137559   1.070000   4.561332   4.645238
    38  H    2.148263   2.685968   4.137441   1.070000   2.051796
    39  H    2.148263   3.425870   4.534989   1.070000   2.051796
    40  H    3.267757   3.738181   4.828260   1.970203   0.960000
    41  H    2.221905   3.510707   3.690135   2.851308   3.334871
    42  H    2.264694   2.808026   2.559415   3.085909   3.001539
                   21         22         23         24         25
    21  C    0.000000
    22  O    3.638160   0.000000
    23  H    4.775313   6.506571   0.000000
    24  H    3.598319   5.079743   3.443400   0.000000
    25  H    6.289945   9.161409   4.801051   4.450491   0.000000
    26  H    5.184550   7.749843   3.162548   3.032450   1.747303
    27  H    5.152003   8.300358   3.902743   4.206100   1.747303
    28  H    6.295740   9.371213   6.602159   5.245989   2.467123
    29  H    6.242797   8.962233   8.130991   5.846628   4.875740
    30  H    4.851462   6.948920   7.810826   4.984977   6.000371
    31  H    3.383155   4.106254   5.957141   2.772226   6.305965
    32  H    3.355259   2.732923   4.692487   2.580012   6.977220
    33  H    2.665453   2.893963   3.618779   2.911881   6.755847
    34  H    3.419356   2.798557   7.650561   5.360890   8.820387
    35  H    3.127853   3.986569   7.855427   5.896989   8.612068
    36  H    2.435813   4.858367   6.658980   4.486064   6.530464
    37  H    3.690443   4.857768   7.657192   4.863138   7.393283
    38  H    3.567935   2.762981   7.694371   6.584656   9.847609
    39  H    2.873079   3.124980   6.417971   6.034479   8.995711
    40  H    3.953879   4.883911   8.160714   7.516789   9.848724
    41  H    1.070000   3.878072   4.178860   3.853456   6.364366
    42  H    1.070000   4.578931   5.264659   4.098786   6.038957
                   26         27         28         29         30
    26  H    0.000000
    27  H    1.747303   0.000000
    28  H    3.665535   3.125671   0.000000
    29  H    5.568752   5.237100   2.621511   0.000000
    30  H    5.983280   5.986927   4.393635   2.446651   0.000000
    31  H    5.351750   6.066466   6.013302   5.323481   3.423628
    32  H    5.502879   6.454330   7.504505   7.500742   5.864319
    33  H    5.173736   5.854799   7.532622   7.896772   6.513445
    34  H    7.824710   8.098197   8.283366   7.182931   4.899355
    35  H    7.822289   7.711719   7.817279   6.653790   4.584427
    36  H    5.946254   5.771544   5.615494   4.607998   2.815415
    37  H    6.815774   6.968178   6.344649   4.838359   2.464371
    38  H    8.696071   8.697465   9.626636   8.962548   6.995692
    39  H    7.768521   7.668701   9.094191   8.901401   7.269180
    40  H    8.945347   8.486991   9.429398   8.844940   7.264382
    41  H    5.138209   5.048314   6.698166   6.990516   5.815916
    42  H    5.198172   4.854525   5.737397   5.590173   4.385836
                   31         32         33         34         35
    31  H    0.000000
    32  H    2.573255   0.000000
    33  H    3.719813   1.738228   0.000000
    34  H    3.182187   3.860342   4.428054   0.000000
    35  H    4.001076   4.961823   5.073066   1.747442   0.000000
    36  H    2.992350   4.568803   4.693628   2.992052   2.203442
    37  H    2.454503   4.574858   5.291416   2.477793   2.463724
    38  H    5.333917   4.919150   4.535060   2.759408   2.678675
    39  H    5.545230   4.715184   3.736762   3.850032   3.573246
    40  H    6.545506   6.509793   5.764338   4.316718   3.189004
    41  H    4.242132   3.647750   2.441031   4.272086   3.992849
    42  H    3.774527   4.288609   3.686139   3.811693   3.053306
                   36         37         38         39         40
    36  H    0.000000
    37  H    1.759335   0.000000
    38  H    4.359516   4.808847   0.000000
    39  H    4.512356   5.453141   1.747303   0.000000
    40  H    4.516114   5.531737   2.315570   2.315570   0.000000
    41  H    3.453484   4.759821   3.830831   2.651905   4.053031
    42  H    1.945181   3.557674   4.033260   3.418107   3.881178
                   41         42
    41  H    0.000000
    42  H    1.727791   0.000000
 Stoichiometry    C18H20O4
 Framework group  C1[X(C18H20O4)]
 Deg. of freedom   120
 Full point group                 C1      NOp   1
 Largest Abelian subgroup         C1      NOp   1
 Largest concise Abelian subgroup C1      NOp   1
                         Standard orientation:                         
 ---------------------------------------------------------------------
 Center     Atomic      Atomic             Coordinates (Angstroms)
 Number     Number       Type             X           Y           Z
 ---------------------------------------------------------------------
      1          8           0        1.596497    2.057405    1.431917
      2          6           0        1.219538    2.224031    0.242923
      3          8           0        0.968245    3.542914   -0.249316
      4          6           0        1.028847    1.007608   -0.682038
      5          6           0        1.921692   -0.189821   -0.356393
      6          6           0        3.337282   -0.205014    0.224388
      7          6           0        4.057112    1.104443    0.596903
      8          6           0        3.942314   -1.414628    0.399343
      9          6           0        3.199096   -2.729096    0.016422
     10          6           0        1.930870   -2.685092   -0.485551
     11          6           0        1.273923   -1.313699   -0.664548
     12          6           0       -0.158820   -0.994138   -1.151949
     13          6           0       -0.400349    0.414923   -0.584156
     14          6           0       -1.421938    1.320730   -1.287411
     15          6           0       -2.737802    0.705062   -0.938581
     16          6           0       -2.553077   -0.215712    0.255728
     17          6           0       -2.494106   -1.672979   -0.245970
     18          6           0       -1.038860   -2.035697   -0.470005
     19          6           0       -3.727877   -0.108238    1.245624
     20          8           0       -3.492660   -0.972707    2.360194
     21          6           0       -1.125927    0.249446    0.810592
     22          8           0       -3.824871    0.917932   -1.535689
     23          1           0        1.535166    4.168469    0.207721
     24          1           0        1.237535    1.308879   -1.687316
     25          1           0        5.112722    0.977989    0.476085
     26          1           0        3.716901    1.892621   -0.041793
     27          1           0        3.841855    1.352538    1.615242
     28          1           0        4.932992   -1.461036    0.800969
     29          1           0        3.685663   -3.672765    0.149244
     30          1           0        1.409848   -3.583088   -0.744469
     31          1           0       -0.244420   -0.973026   -2.218310
     32          1           0       -1.256642    1.389530   -2.342325
     33          1           0       -1.373670    2.304315   -0.868925
     34          1           0       -3.121881   -1.756976   -1.108376
     35          1           0       -2.827096   -2.357593    0.505908
     36          1           0       -0.636674   -2.118726    0.518050
     37          1           0       -0.964756   -2.969972   -0.986278
     38          1           0       -4.634489   -0.396427    0.755827
     39          1           0       -3.813524    0.901466    1.589228
     40          1           0       -4.225003   -0.905711    2.977272
     41          1           0       -1.194246    1.198562    1.299888
     42          1           0       -0.669478   -0.436174    1.493586
 ---------------------------------------------------------------------
 Rotational constants (GHZ):           0.4513159           0.2288311           0.1854314
 Leave Link  202 at Sat Jul 29 14:24:18 2023, MaxMem=   104857600 cpu:               0.0 elap:               0.0
 (Enter /private/chem/g16E03/g16/l301.exe)
 Standard basis: 6-31+G(d,p) (6D, 7F)
 Ernie: Thresh=  0.10000D-02 Tol=  0.10000D-05 Strict=F.
 There are   518 symmetry adapted cartesian basis functions of A   symmetry.
 There are   518 symmetry adapted basis functions of A   symmetry.
   518 basis functions,   844 primitive gaussians,   518 cartesian basis functions
    80 alpha electrons       80 beta electrons
       nuclear repulsion energy      1900.9301477601 Hartrees.
 IExCor= 4336 DFT=T Ex+Corr=M062X ExCW=0 ScaHFX=  0.540000
 ScaDFX=  1.000000  1.000000  1.000000  1.000000 ScalE2=  1.000000  1.000000
 IRadAn=      5 IRanWt=     -1 IRanGd=            0 ICorTp=0 IEmpDi=  4
 NAtoms=   42 NActive=   42 NUniq=   42 SFac= 1.00D+00 NAtFMM=   60 NAOKFM=F Big=F
 Integral buffers will be    131072 words long.
 Raffenetti 2 integral format.
 Two-electron integral symmetry is turned on.
 ------------------------------------------------------------------------------
 Polarizable Continuum Model (PCM)
 =================================
 Model                : PCM.
 Atomic radii         : SMD-Coulomb.
 Polarization charges : Total charges.
 Charge compensation  : None.
 Solution method      : On-the-fly selection.
 Cavity type          : VdW (van der Waals Surface) (Alpha=1.000).
 Cavity algorithm     : GePol (No added spheres)
                        Default sphere list used, NSphG=   42.
                        Lebedev-Laikov grids with approx.  5.0 points / Ang**2.
                        Smoothing algorithm: York/Karplus (Gamma=1.0000).
                        Polarization charges: spherical gaussians, with
                                              point-specific exponents (IZeta= 3).
                        Self-potential: point-specific (ISelfS= 7).
                        Self-field    : sphere-specific E.n sum rule (ISelfD= 2).
 1st derivatives      : Analytical E(r).r(x)/FMM algorithm (CHGder, D1EAlg=3).
                        Cavity 1st derivative terms included.
 Solvent              : Water, Eps=  78.355300 Eps(inf)=   1.777849
 ------------------------------------------------------------------------------
 GePol: Number of generator spheres                  =      42
 GePol: Total number of spheres                      =      42
 GePol: Number of exposed spheres                    =      42 (100.00%)
 GePol: Number of points                             =    2686
 GePol: Average weight of points                     =       0.11
 GePol: Minimum weight of points                     =   0.43D-10
 GePol: Maximum weight of points                     =    0.21991
 GePol: Number of points with low weight             =     168
 GePol: Fraction of low-weight points (<1% of avg)   =       6.25%
 GePol: Cavity surface area                          =    306.853 Ang**2
 GePol: Cavity volume                                =    291.766 Ang**3
 ------------------------------------------------------------------------------
 Atomic radii for non-electrostatic terms: SMD-CDS.
 ------------------------------------------------------------------------------
 PCM non-electrostatic energy =         0.0113819187 Hartrees.
 Nuclear repulsion after PCM non-electrostatic terms =     1900.9415296789 Hartrees.
 Leave Link  301 at Sat Jul 29 14:24:18 2023, MaxMem=   104857600 cpu:               0.1 elap:               0.1
 (Enter /private/chem/g16E03/g16/l302.exe)
 NPDir=0 NMtPBC=     1 NCelOv=     1 NCel=       1 NClECP=     1 NCelD=      1
         NCelK=      1 NCelE2=     1 NClLst=     1 CellRange=     0.0.
 One-electron integrals computed using PRISM.
 One-electron integral symmetry used in STVInt
 NBasis=   518 RedAO= T EigKep=  1.19D-06  NBF=   518
 NBsUse=   516 1.00D-06 EigRej=  2.71D-07 NBFU=   516
 Precomputing XC quadrature grid using
 IXCGrd= 4 IRadAn=           5 IRanWt=          -1 IRanGd=           0 AccXCQ= 0.00D+00.
 Generated NRdTot=       0 NPtTot=           0 NUsed=           0 NTot=          32
 NSgBfM=   517   516   517   517   517 MxSgAt=    42 MxSgA2=    42.
 Leave Link  302 at Sat Jul 29 14:24:21 2023, MaxMem=   104857600 cpu:               2.9 elap:               2.9
 (Enter /private/chem/g16E03/g16/l303.exe)
 DipDrv:  MaxL=1.
 Leave Link  303 at Sat Jul 29 14:24:21 2023, MaxMem=   104857600 cpu:               0.1 elap:               0.1
 (Enter /private/chem/g16E03/g16/l401.exe)
 ExpMin= 4.38D-02 ExpMax= 5.48D+03 ExpMxC= 8.25D+02 IAcc=3 IRadAn=         5 AccDes= 0.00D+00
 Harris functional with IExCor= 1009 and IRadAn=       5 diagonalized for initial guess.
 HarFok:  IExCor= 1009 AccDes= 0.00D+00 IRadAn=         5 IDoV= 1 UseB2=F ITyADJ=14
 ICtDFT=  3500011 ScaDFX=  1.000000  1.000000  1.000000  1.000000
 FoFCou: FMM=F IPFlag=           0 FMFlag=      100000 FMFlg1=           0
         NFxFlg=           0 DoJE=T BraDBF=F KetDBF=T FulRan=T
         wScrn=  0.000000 ICntrl=       500 IOpCl=  0 I1Cent=   200000004 NGrid=           0
         NMat0=    1 NMatS0=      1 NMatT0=    0 NMatD0=    1 NMtDS0=    0 NMtDT0=    0
 Petite list used in FoFCou.
 Harris En= -997.978370641001    
 JPrj=0 DoOrth=F DoCkMO=F.
 Leave Link  401 at Sat Jul 29 14:25:12 2023, MaxMem=   104857600 cpu:              50.8 elap:              50.9
 (Enter /private/chem/g16E03/g16/l502.exe)
 Integral symmetry usage will be decided dynamically.
 Closed shell SCF:
 Using DIIS extrapolation, IDIIS=  1040.
 NGot=   104857600 LenX=   104312574 LenY=   104043732
 Requested convergence on RMS density matrix=1.00D-08 within 128 cycles.
 Requested convergence on MAX density matrix=1.00D-06.
 Requested convergence on             energy=1.00D-06.
 No special actions if energy rises.
 Fock matrices will be formed incrementally for  20 cycles.

 Cycle   1  Pass 1  IDiag  1:
 FoFJK:  IHMeth= 1 ICntrl=       0 DoSepK=F KAlg= 0 I1Cent=           0 FoldK=F
 IRaf= 840000000 NMat=       1 IRICut=       1 DoRegI=T DoRafI=F ISym2E= 0 IDoP0=0 IntGTp=1.
 FoFCou: FMM=F IPFlag=           0 FMFlag=      100000 FMFlg1=           0
         NFxFlg=           0 DoJE=F BraDBF=F KetDBF=F FulRan=T
         wScrn=  0.000000 ICntrl=         0 IOpCl=  0 I1Cent=           0 NGrid=           0
         NMat0=    1 NMatS0=      1 NMatT0=    0 NMatD0=    1 NMtDS0=    0 NMtDT0=    0
 Symmetry not used in FoFCou.
 Inv3:  Mode=1 IEnd=    21643788.
 Iteration    1 A*A^-1 deviation from unit magnitude is 5.11D-15 for   2683.
 Iteration    1 A*A^-1 deviation from orthogonality  is 2.98D-15 for   2683   2578.
 Iteration    1 A^-1*A deviation from unit magnitude is 5.11D-15 for   2683.
 Iteration    1 A^-1*A deviation from orthogonality  is 2.57D-14 for   1557   1502.
 E= -997.992212739994    
 DIIS: error= 1.54D-02 at cycle   1 NSaved=   1.
 NSaved= 1 IEnMin= 1 EnMin= -997.992212739994     IErMin= 1 ErrMin= 1.54D-02
 ErrMax= 1.54D-02  0.00D+00 EMaxC= 1.00D-01 BMatC= 5.81D-01 BMatP= 5.81D-01
 IDIUse=3 WtCom= 8.46D-01 WtEn= 1.54D-01
 Coeff-Com:  0.100D+01
 Coeff-En:   0.100D+01
 Coeff:      0.100D+01
 Gap=     0.257 Goal=   None    Shift=    0.000
 GapD=    0.257 DampG=1.000 DampE=0.500 DampFc=0.5000 IDamp=-1.
 Damping current iteration by 5.00D-01
 RMSDP=2.42D-02 MaxDP=1.41D+00              OVMax= 1.28D-01

 Cycle   2  Pass 1  IDiag  1:
 RMSU=  1.19D-02    CP:  9.67D-01
 E= -998.235295920419     Delta-E=       -0.243083180424 Rises=F Damp=T
 DIIS: error= 7.81D-03 at cycle   2 NSaved=   2.
 NSaved= 2 IEnMin= 2 EnMin= -998.235295920419     IErMin= 2 ErrMin= 7.81D-03
 ErrMax= 7.81D-03  0.00D+00 EMaxC= 1.00D-01 BMatC= 5.21D-02 BMatP= 5.81D-01
 IDIUse=3 WtCom= 9.22D-01 WtEn= 7.81D-02
 Coeff-Com: -0.756D-01 0.108D+01
 Coeff-En:   0.000D+00 0.100D+01
 Coeff:     -0.697D-01 0.107D+01
 Gap=     0.297 Goal=   None    Shift=    0.000
 RMSDP=1.73D-02 MaxDP=3.61D+00 DE=-2.43D-01 OVMax= 8.73D-02

 Cycle   3  Pass 1  IDiag  1:
 RMSU=  9.12D-03    CP:  7.30D-01  8.45D-01
 E= -998.460537947150     Delta-E=       -0.225242026731 Rises=F Damp=F
 DIIS: error= 5.46D-03 at cycle   3 NSaved=   3.
 NSaved= 3 IEnMin= 3 EnMin= -998.460537947150     IErMin= 3 ErrMin= 5.46D-03
 ErrMax= 5.46D-03  0.00D+00 EMaxC= 1.00D-01 BMatC= 2.43D-02 BMatP= 5.21D-02
 IDIUse=3 WtCom= 9.45D-01 WtEn= 5.46D-02
 Coeff-Com: -0.101D+00 0.452D+00 0.649D+00
 Coeff-En:   0.000D+00 0.000D+00 0.100D+01
 Coeff:     -0.955D-01 0.427D+00 0.668D+00
 Gap=     0.286 Goal=   None    Shift=    0.000
 RMSDP=3.04D-03 MaxDP=2.93D-01 DE=-2.25D-01 OVMax= 2.92D-02

 Cycle   4  Pass 1  IDiag  1:
 RMSU=  2.66D-03    CP:  7.10D-01  8.26D-01  9.25D-01
 E= -998.475452887063     Delta-E=       -0.014914939913 Rises=F Damp=F
 DIIS: error= 2.04D-03 at cycle   4 NSaved=   4.
 NSaved= 4 IEnMin= 4 EnMin= -998.475452887063     IErMin= 4 ErrMin= 2.04D-03
 ErrMax= 2.04D-03  0.00D+00 EMaxC= 1.00D-01 BMatC= 4.62D-03 BMatP= 2.43D-02
 IDIUse=3 WtCom= 9.80D-01 WtEn= 2.04D-02
 Coeff-Com: -0.335D-01 0.923D-01 0.342D+00 0.599D+00
 Coeff-En:   0.000D+00 0.000D+00 0.140D+00 0.860D+00
 Coeff:     -0.328D-01 0.905D-01 0.338D+00 0.604D+00
 Gap=     0.284 Goal=   None    Shift=    0.000
 RMSDP=1.20D-03 MaxDP=1.14D-01 DE=-1.49D-02 OVMax= 1.11D-02

 Cycle   5  Pass 1  IDiag  1:
 RMSU=  7.48D-04    CP:  7.15D-01  8.60D-01  9.25D-01  7.10D-01
 E= -998.478938620894     Delta-E=       -0.003485733831 Rises=F Damp=F
 DIIS: error= 3.57D-04 at cycle   5 NSaved=   5.
 NSaved= 5 IEnMin= 5 EnMin= -998.478938620894     IErMin= 5 ErrMin= 3.57D-04
 ErrMax= 3.57D-04  0.00D+00 EMaxC= 1.00D-01 BMatC= 2.04D-04 BMatP= 4.62D-03
 IDIUse=3 WtCom= 9.96D-01 WtEn= 3.57D-03
 Coeff-Com: -0.105D-01 0.219D-01 0.129D+00 0.286D+00 0.574D+00
 Coeff-En:   0.000D+00 0.000D+00 0.000D+00 0.000D+00 0.100D+01
 Coeff:     -0.104D-01 0.218D-01 0.128D+00 0.285D+00 0.576D+00
 Gap=     0.284 Goal=   None    Shift=    0.000
 RMSDP=3.65D-04 MaxDP=3.75D-02 DE=-3.49D-03 OVMax= 2.76D-03

 Cycle   6  Pass 1  IDiag  1:
 RMSU=  2.39D-04    CP:  7.14D-01  8.53D-01  9.44D-01  6.87D-01  7.93D-01
 E= -998.479099139135     Delta-E=       -0.000160518241 Rises=F Damp=F
 DIIS: error= 9.26D-05 at cycle   6 NSaved=   6.
 NSaved= 6 IEnMin= 6 EnMin= -998.479099139135     IErMin= 6 ErrMin= 9.26D-05
 ErrMax= 9.26D-05  0.00D+00 EMaxC= 1.00D-01 BMatC= 1.06D-05 BMatP= 2.04D-04
 IDIUse=1 WtCom= 1.00D+00 WtEn= 0.00D+00
 Coeff-Com: -0.942D-03 0.239D-03 0.182D-01 0.520D-01 0.222D+00 0.709D+00
 Coeff:     -0.942D-03 0.239D-03 0.182D-01 0.520D-01 0.222D+00 0.709D+00
 Gap=     0.284 Goal=   None    Shift=    0.000
 RMSDP=1.09D-04 MaxDP=1.79D-02 DE=-1.61D-04 OVMax= 5.11D-04

 Cycle   7  Pass 1  IDiag  1:
 RMSU=  7.08D-05    CP:  7.13D-01  8.50D-01  9.47D-01  6.88D-01  7.95D-01
                    CP:  1.03D+00
 E= -998.479107850669     Delta-E=       -0.000008711534 Rises=F Damp=F
 DIIS: error= 2.48D-05 at cycle   7 NSaved=   7.
 NSaved= 7 IEnMin= 7 EnMin= -998.479107850669     IErMin= 7 ErrMin= 2.48D-05
 ErrMax= 2.48D-05  0.00D+00 EMaxC= 1.00D-01 BMatC= 7.43D-07 BMatP= 1.06D-05
 IDIUse=1 WtCom= 1.00D+00 WtEn= 0.00D+00
 Coeff-Com:  0.746D-03-0.212D-02-0.658D-02-0.122D-01 0.205D-01 0.214D+00
 Coeff-Com:  0.786D+00
 Coeff:      0.746D-03-0.212D-02-0.658D-02-0.122D-01 0.205D-01 0.214D+00
 Coeff:      0.786D+00
 Gap=     0.284 Goal=   None    Shift=    0.000
 RMSDP=3.58D-05 MaxDP=4.83D-03 DE=-8.71D-06 OVMax= 2.60D-04

 Cycle   8  Pass 1  IDiag  1:
 RMSU=  2.11D-05    CP:  7.12D-01  8.48D-01  9.47D-01  6.88D-01  8.14D-01
                    CP:  1.05D+00  1.11D+00
 E= -998.479108717843     Delta-E=       -0.000000867174 Rises=F Damp=F
 DIIS: error= 9.05D-06 at cycle   8 NSaved=   8.
 NSaved= 8 IEnMin= 8 EnMin= -998.479108717843     IErMin= 8 ErrMin= 9.05D-06
 ErrMax= 9.05D-06  0.00D+00 EMaxC= 1.00D-01 BMatC= 1.33D-07 BMatP= 7.43D-07
 IDIUse=1 WtCom= 1.00D+00 WtEn= 0.00D+00
 Coeff-Com:  0.379D-03-0.813D-03-0.429D-02-0.110D-01-0.167D-01-0.104D-01
 Coeff-Com:  0.305D+00 0.737D+00
 Coeff:      0.379D-03-0.813D-03-0.429D-02-0.110D-01-0.167D-01-0.104D-01
 Coeff:      0.305D+00 0.737D+00
 Gap=     0.284 Goal=   None    Shift=    0.000
 RMSDP=1.31D-05 MaxDP=1.24D-03 DE=-8.67D-07 OVMax= 1.50D-04

 Cycle   9  Pass 1  IDiag  1:
 RMSU=  8.77D-06    CP:  7.12D-01  8.48D-01  9.48D-01  6.88D-01  8.13D-01
                    CP:  1.07D+00  1.13D+00  9.01D-01
 E= -998.479108872211     Delta-E=       -0.000000154368 Rises=F Damp=F
 DIIS: error= 3.04D-06 at cycle   9 NSaved=   9.
 NSaved= 9 IEnMin= 9 EnMin= -998.479108872211     IErMin= 9 ErrMin= 3.04D-06
 ErrMax= 3.04D-06  0.00D+00 EMaxC= 1.00D-01 BMatC= 1.24D-08 BMatP= 1.33D-07
 IDIUse=1 WtCom= 1.00D+00 WtEn= 0.00D+00
 Coeff-Com:  0.648D-04-0.102D-03-0.749D-03-0.280D-02-0.677D-02-0.243D-01
 Coeff-Com:  0.365D-01 0.244D+00 0.754D+00
 Coeff:      0.648D-04-0.102D-03-0.749D-03-0.280D-02-0.677D-02-0.243D-01
 Coeff:      0.365D-01 0.244D+00 0.754D+00
 Gap=     0.284 Goal=   None    Shift=    0.000
 RMSDP=3.89D-06 MaxDP=3.73D-04 DE=-1.54D-07 OVMax= 5.44D-05

 Cycle  10  Pass 1  IDiag  1:
 RMSU=  2.76D-06    CP:  7.12D-01  8.48D-01  9.48D-01  6.87D-01  8.13D-01
                    CP:  1.07D+00  1.14D+00  9.27D-01  1.12D+00
 E= -998.479108889200     Delta-E=       -0.000000016989 Rises=F Damp=F
 DIIS: error= 8.96D-07 at cycle  10 NSaved=  10.
 NSaved=10 IEnMin=10 EnMin= -998.479108889200     IErMin=10 ErrMin= 8.96D-07
 ErrMax= 8.96D-07  0.00D+00 EMaxC= 1.00D-01 BMatC= 1.90D-09 BMatP= 1.24D-08
 IDIUse=1 WtCom= 1.00D+00 WtEn= 0.00D+00
 Coeff-Com: -0.410D-04 0.101D-03 0.510D-03 0.778D-03 0.672D-03-0.730D-02
 Coeff-Com: -0.352D-01-0.395D-01 0.261D+00 0.819D+00
 Coeff:     -0.410D-04 0.101D-03 0.510D-03 0.778D-03 0.672D-03-0.730D-02
 Coeff:     -0.352D-01-0.395D-01 0.261D+00 0.819D+00
 Gap=     0.284 Goal=   None    Shift=    0.000
 RMSDP=1.50D-06 MaxDP=1.02D-04 DE=-1.70D-08 OVMax= 3.00D-05

 Cycle  11  Pass 1  IDiag  1:
 RMSU=  1.08D-06    CP:  7.12D-01  8.48D-01  9.48D-01  6.87D-01  8.13D-01
                    CP:  1.07D+00  1.14D+00  9.36D-01  1.21D+00  1.07D+00
 E= -998.479108892422     Delta-E=       -0.000000003222 Rises=F Damp=F
 DIIS: error= 3.02D-07 at cycle  11 NSaved=  11.
 NSaved=11 IEnMin=11 EnMin= -998.479108892422     IErMin=11 ErrMin= 3.02D-07
 ErrMax= 3.02D-07  0.00D+00 EMaxC= 1.00D-01 BMatC= 1.79D-10 BMatP= 1.90D-09
 IDIUse=1 WtCom= 1.00D+00 WtEn= 0.00D+00
 Coeff-Com: -0.175D-04 0.378D-04 0.242D-03 0.516D-03 0.961D-03 0.300D-03
 Coeff-Com: -0.139D-01-0.394D-01-0.871D-02 0.236D+00 0.824D+00
 Coeff:     -0.175D-04 0.378D-04 0.242D-03 0.516D-03 0.961D-03 0.300D-03
 Coeff:     -0.139D-01-0.394D-01-0.871D-02 0.236D+00 0.824D+00
 Gap=     0.284 Goal=   None    Shift=    0.000
 RMSDP=6.35D-07 MaxDP=6.62D-05 DE=-3.22D-09 OVMax= 1.04D-05

 Cycle  12  Pass 1  IDiag  1:
 RMSU=  2.90D-07    CP:  7.12D-01  8.48D-01  9.48D-01  6.87D-01  8.13D-01
                    CP:  1.07D+00  1.14D+00  9.35D-01  1.25D+00  1.15D+00
                    CP:  1.11D+00
 E= -998.479108892658     Delta-E=       -0.000000000236 Rises=F Damp=F
 DIIS: error= 1.16D-07 at cycle  12 NSaved=  12.
 NSaved=12 IEnMin=12 EnMin= -998.479108892658     IErMin=12 ErrMin= 1.16D-07
 ErrMax= 1.16D-07  0.00D+00 EMaxC= 1.00D-01 BMatC= 2.79D-11 BMatP= 1.79D-10
 IDIUse=1 WtCom= 1.00D+00 WtEn= 0.00D+00
 Coeff-Com: -0.211D-06-0.714D-06 0.227D-04 0.783D-04 0.269D-03 0.103D-02
 Coeff-Com: -0.401D-03-0.935D-02-0.364D-01-0.217D-01 0.294D+00 0.773D+00
 Coeff:     -0.211D-06-0.714D-06 0.227D-04 0.783D-04 0.269D-03 0.103D-02
 Coeff:     -0.401D-03-0.935D-02-0.364D-01-0.217D-01 0.294D+00 0.773D+00
 Gap=     0.284 Goal=   None    Shift=    0.000
 RMSDP=2.49D-07 MaxDP=3.65D-05 DE=-2.36D-10 OVMax= 4.14D-06

 Cycle  13  Pass 1  IDiag  1:
 RMSU=  1.09D-07    CP:  7.12D-01  8.48D-01  9.48D-01  6.87D-01  8.13D-01
                    CP:  1.07D+00  1.14D+00  9.33D-01  1.25D+00  1.17D+00
                    CP:  1.22D+00  1.11D+00
 E= -998.479108892862     Delta-E=       -0.000000000205 Rises=F Damp=F
 DIIS: error= 4.65D-08 at cycle  13 NSaved=  13.
 NSaved=13 IEnMin=13 EnMin= -998.479108892862     IErMin=13 ErrMin= 4.65D-08
 ErrMax= 4.65D-08  0.00D+00 EMaxC= 1.00D-01 BMatC= 3.40D-12 BMatP= 2.79D-11
 IDIUse=1 WtCom= 1.00D+00 WtEn= 0.00D+00
 Coeff-Com:  0.242D-05-0.552D-05-0.267D-04-0.485D-04-0.522D-04 0.269D-03
 Coeff-Com:  0.191D-02 0.283D-02-0.101D-01-0.434D-01-0.337D-01 0.240D+00
 Coeff-Com:  0.842D+00
 Coeff:      0.242D-05-0.552D-05-0.267D-04-0.485D-04-0.522D-04 0.269D-03
 Coeff:      0.191D-02 0.283D-02-0.101D-01-0.434D-01-0.337D-01 0.240D+00
 Coeff:      0.842D+00
 Gap=     0.284 Goal=   None    Shift=    0.000
 RMSDP=7.72D-08 MaxDP=6.99D-06 DE=-2.05D-10 OVMax= 2.31D-06

 Cycle  14  Pass 1  IDiag  1:
 RMSU=  3.77D-08    CP:  7.12D-01  8.48D-01  9.48D-01  6.87D-01  8.13D-01
                    CP:  1.07D+00  1.14D+00  9.33D-01  1.25D+00  1.17D+00
                    CP:  1.25D+00  1.25D+00  1.07D+00
 E= -998.479108892956     Delta-E=       -0.000000000094 Rises=F Damp=F
 DIIS: error= 2.26D-08 at cycle  14 NSaved=  14.
 NSaved=14 IEnMin=14 EnMin= -998.479108892956     IErMin=14 ErrMin= 2.26D-08
 ErrMax= 2.26D-08  0.00D+00 EMaxC= 1.00D-01 BMatC= 6.69D-13 BMatP= 3.40D-12
 IDIUse=1 WtCom= 1.00D+00 WtEn= 0.00D+00
 Coeff-Com:  0.100D-05-0.221D-05-0.137D-04-0.281D-04-0.519D-04-0.421D-05
 Coeff-Com:  0.823D-03 0.219D-02 0.191D-03-0.147D-01-0.459D-01 0.103D-01
[...]
 0,-0.00006601,0.00001008,-0.00000616,0.06279603,0.10331028,-0.13370973
 ,0.00586286,0.01766288,-0.03934065,0.00089252,-0.00201574,-0.00082520,
 -0.00020683,-0.00114750,-0.00049849,0.00000279,-0.00000106,-0.00000455
 ,-0.00001935,-0.00007517,0.00001979,-0.00000051,-0.00000182,0.00000115
 ,0.00000066,0.00000191,-0.00000004,-0.00000153,-0.00000069,-0.00000007
 ,0.00000186,-0.00000263,-0.00000010,0.00000107,-0.00000213,0.00000071,
 0.00000298,0.00000003,-0.00000108,0.00002643,0.00000108,-0.00001733,0.
 00001252,0.00003543,-0.00001429,0.00000023,0.00002730,-0.00000318,-0.0
 0019646,0.00013750,-0.00015718,-0.00009158,0.00026982,-0.00003514,0.00
 000017,-0.00000106,0.00000133,0.00001350,0.00001229,-0.00000585,-0.064
 82669,-0.11571204,0.16194763,0.00002804,0.00000648,-0.00003175,-0.0000
 9357,0.00001423,0.00003894,0.00004235,-0.00001196,0.00000049,0.0000185
 2,0.00004273,0.00001665,0.00001757,0.00002571,-0.00001400,-0.00000544,
 -0.00000478,-0.00000544,-0.00000283,0.00000381,-0.00000139,0.00000242,
 0.00001227,-0.00000611,-0.00000539,-0.00000062,0.00000015,0.00000483,0
 .00000841,-0.00000585,0.00003428,-0.00000600,0.00005628,0.00005221,-0.
 00010732,-0.00009512,0.00018315,-0.00009911,0.00004544,0.00008759,0.00
 016542,0.00027901,-0.00045326,0.00052749,-0.00171166,-0.00914626,0.000
 12872,0.00216492,0.00083954,0.00215691,0.00003085,-0.00049303,-0.00035
 774,0.00038934,-0.30666308,0.01412119,-0.00040313,-0.00682054,-0.00251
 642,-0.01277268,0.00071231,-0.00049560,-0.00009513,0.00036693,-0.00057
 806,0.00089156,-0.00000095,0.00000530,0.00000013,0.00000554,0.00001944
 ,-0.00000521,0.00000147,0.00000280,-0.00000131,0.00000070,-0.00000126,
 0.00000038,0.00000205,0.00000096,-0.00000026,-0.00000111,0.00000262,-0
 .00000155,-0.00000188,0.00000347,-0.00000161,0.00000063,-0.00000144,-0
 .00000030,0.00001040,0.00000661,0.00001509,-0.00000604,0.00005608,0.00
 000523,-0.00002430,0.00005089,0.00003443,-0.00015438,0.00001599,0.0001
 5550,0.00038494,-0.00008763,-0.00009090,0.00000035,0.00004138,-0.00005
 591,-0.00009801,0.00023888,-0.00012128,-0.01155980,0.00136777,0.000828
 34,0.33225789,-0.00001880,0.00000799,0.00002400,0.00005864,-0.00003377
 ,-0.00003717,-0.00003258,0.00001449,0.00000692,-0.00003720,-0.00000660
 ,0.00004748,-0.00000236,-0.00003827,0.00001939,-0.00000021,0.00000553,
 -0.00000027,0.00000241,-0.00000389,0.00000219,-0.00000048,-0.00001441,
 0.00001052,0.00000357,0.00000057,0.00000088,-0.00000157,-0.00002733,0.
 00001644,-0.00002919,0.00002758,-0.00008166,0.00015982,0.00018321,0.00
 018890,-0.00003666,0.00039247,-0.00012054,-0.00001625,0.00006870,-0.00
 002934,0.00144182,-0.00001485,0.00153647,0.02983418,-0.00299492,-0.001
 68321,0.00003721,-0.00481728,-0.00129027,0.00137730,0.00016193,-0.0005
 9790,0.01227445,-0.05436918,0.00389128,-0.00659852,0.00299951,-0.00522
 724,0.00092049,0.00155234,-0.00017505,-0.00022052,0.00044470,-0.000597
 37,-0.00000114,-0.00000251,-0.00000251,-0.00000165,0.00000392,-0.00000
 628,-0.00000216,-0.00000267,0.00000107,-0.00000093,0.00000017,-0.00000
 003,-0.00000250,-0.00000094,0.00000072,0.00000002,-0.00000289,0.000001
 16,0.00000205,-0.00000495,0.00000292,-0.00000599,-0.00000220,-0.000001
 35,-0.00001548,-0.00001153,-0.00001997,0.00000252,-0.00003003,-0.00000
 401,-0.00006738,-0.00002577,0.00000930,0.00054241,-0.00005766,-0.00013
 282,-0.00021001,0.00005669,0.00024589,-0.00001930,-0.00002862,0.000059
 70,0.00023646,-0.00049434,0.00019072,-0.02260692,0.00288990,0.00053262
 ,-0.01590736,0.05409489,-0.00000647,-0.00000147,0.00002456,0.00003151,
 -0.00000273,-0.00002904,-0.00001502,-0.00000265,0.00000534,-0.00001791
 ,-0.00000660,0.00001382,-0.00000388,-0.00001759,0.00002114,0.00000094,
 -0.00000003,-0.00000353,0.00000252,-0.00000284,0.00000154,-0.00000285,
 -0.00000718,0.00000922,0.00000305,0.00000006,-0.00000165,-0.00000420,-
 0.00001130,0.00000501,-0.00003045,0.00000787,-0.00004900,0.00004235,0.
 00006765,0.00007337,0.00000376,0.00008027,-0.00007229,0.00007177,-0.00
 000086,-0.00010664,0.00125780,-0.00058476,0.00046852,0.00882637,0.0006
 9613,0.00024509,0.00023491,-0.00263012,0.00066948,0.00070984,0.0001498
 4,-0.00041316,0.00313664,0.00169128,-0.04785415,-0.04182167,-0.0024457
 2,-0.01883290,-0.00038586,0.00031957,0.00005465,-0.00018559,0.00020489
 ,0.00012467,0.00000283,0.00000176,-0.00000148,-0.00000280,-0.00000263,
 -0.00000157,-0.00000137,-0.00000177,0.00000084,-0.00000055,0.00000059,
 -0.00000014,-0.00000139,-0.00000054,-0.00000012,0.00000028,-0.00000169
 ,0.00000082,0.00000154,-0.00000306,0.00000119,-0.00000239,0.00000133,-
 0.00000013,-0.00000551,-0.00000767,-0.00001270,-0.00002218,-0.00004595
 ,-0.00000448,-0.00003439,0.00000447,0.00000779,-0.00000734,0.00005954,
 -0.00014487,-0.00029563,-0.00010486,-0.00003753,-0.00000354,-0.0000264
 3,0.00004311,0.00012510,-0.00027893,0.00010570,0.01755741,-0.00139063,
 0.00256224,0.01097064,0.00293111,0.06210298,-0.00001361,0.00000239,0.0
 0001092,0.00002790,-0.00000807,-0.00002016,-0.00001243,0.00000890,-0.0
 0000115,0.00000154,-0.00001102,-0.00000453,-0.00000963,0.00000306,0.00
 000394,0.00000495,-0.00000153,-0.00000308,0.00000060,-0.00000058,-0.00
 000030,-0.00000110,-0.00000095,0.00000236,0.00000166,-0.00000098,-0.00
 000069,0.00000057,-0.00000217,0.00000112,0.00000996,0.00000610,-0.0000
 0095,-0.00002978,0.00002125,-0.00001287,-0.00002486,0.00005492,-0.0000
 0490,-0.00017454,-0.00005439,-0.00003970,0.00049667,-0.00026157,0.0001
 6907,-0.00099484,-0.00010295,-0.00176959,0.00026183,0.00018522,0.00049
 742,0.00001138,-0.00002973,-0.00000032,-0.00013294,-0.01400446,-0.0064
 8692,-0.03115686,0.11708535,0.01840438,0.00015193,0.00006789,-0.000048
 52,-0.00008695,0.00002794,-0.00019092,-0.00000070,-0.00000491,0.000000
 45,-0.00000250,-0.00000493,0.00000170,-0.00000004,-0.00000025,0.000000
 37,0.00000011,0.00000036,0.00000016,-0.00000029,-0.00000012,0.00000028
 ,0.00000032,-0.00000054,0.00000005,0.00000014,0.00000004,0.00000007,-0
 .00000003,0.00000009,0.00000046,0.00000305,-0.00000282,-0.00000261,-0.
 00000570,-0.00000599,-0.00001438,0.00000503,-0.00004725,-0.00001545,0.
 00003077,0.00011402,0.00006979,0.00032348,-0.00003647,-0.00008972,0.00
 001474,-0.00001506,-0.00002815,-0.00000304,0.00000434,0.00000225,0.000
 29851,0.00057685,-0.00056134,0.00032425,-0.00045721,0.00005426,0.03068
 278,0.00000998,0.00000190,-0.00001403,-0.00003519,-0.00000217,0.000020
 04,0.00002019,0.00000316,-0.00000186,0.00000364,0.00002726,0.00002214,
 0.00001225,0.00001193,0.00000066,-0.00000354,-0.00000231,-0.00000305,-
 0.00000086,0.00000151,-0.00000006,-0.00000015,0.00000396,-0.00000261,-
 0.00000382,0.00000240,-0.00000021,0.00000020,0.00000735,-0.00000112,0.
 00000161,-0.00000958,0.00001476,0.00000705,-0.00000085,-0.00002067,0.0
 0000620,0.00009960,-0.00005064,0.00010036,0.00007111,-0.00007692,0.000
 06304,-0.00011809,-0.00000158,-0.00064089,0.00059981,-0.00060650,-0.00
 003122,0.00014538,0.00011537,-0.00006034,-0.00003567,0.00008680,0.0014
 9006,-0.00339810,0.00391572,0.10096205,-0.48084641,-0.12873598,-0.0000
 0984,0.00020852,0.00005590,-0.00002148,0.00012686,0.00013172,-0.000003
 46,-0.00000328,0.00000216,0.00000293,0.00001545,-0.00000798,0.00000061
 ,0.00000123,-0.00000058,-0.00000020,-0.00000056,0.00000013,0.00000052,
 0.00000031,0.00000059,-0.00000081,0.00000104,-0.00000070,-0.00000062,0
 .00000149,-0.00000072,-0.00000057,0.00000058,0.00000016,-0.00000543,0.
 00000241,0.00000488,-0.00002571,-0.00001521,-0.00000170,0.00001352,0.0
 0002064,-0.00000624,-0.00001536,0.00007384,0.00006636,0.00009670,-0.00
 000849,0.00000389,0.00000665,0.00001031,-0.00001534,-0.00002966,0.0000
 3657,-0.00001503,0.00056523,0.00113576,0.00151028,0.00064835,0.0001556
 6,0.00136980,-0.10312289,0.48160126,0.00000092,0.00000044,0.00000560,0
 .00001226,-0.00001102,-0.00000502,-0.00000582,-0.00000048,0.00000212,0
 .00000682,-0.00000459,0.00003022,-0.00000642,-0.00000450,0.00001094,0.
 00000228,-0.00000002,-0.00000147,0.00000045,-0.00000073,0.00000034,0.,
 -0.00000235,0.00000056,0.00000155,-0.00000059,0.00000146,-0.00000092,-
 0.00000360,0.00000074,0.00000615,0.00000117,-0.00000507,-0.00000402,0.
 00001444,0.00000634,0.00005201,0.00000228,-0.00009553,-0.00035059,-0.0
 0004933,-0.00033631,0.00097468,-0.00189741,0.00076212,-0.00249595,-0.0
 0017096,-0.00692898,-0.00049489,0.00022963,0.00007898,0.00000466,0.000
 01179,0.00002115,0.00754551,-0.03884691,-0.01580063,0.00410958,-0.0826
 7075,-0.06015997,-0.00022907,0.00062261,0.00011612,-0.00013741,0.00047
 284,-0.00021665,0.00000092,0.00000101,0.00000035,0.00000288,0.00000832
 ,0.00000009,-0.00000006,-0.00000047,0.00000023,0.00000006,0.00000025,-
 0.00000026,-0.00000018,-0.00000010,-0.00000010,0.00000040,-0.00000029,
 0.00000054,0.00000015,-0.00000066,0.00000048,0.00000058,0.,0.00000011,
 -0.00000352,0.00000003,0.00000151,-0.00002359,-0.00009400,0.00000111,-
 0.00001883,-0.00012186,-0.00001257,-0.00000329,0.00001925,0.00000622,0
 .00008740,0.00007129,0.00008024,0.00001138,-0.00002061,-0.00000422,0.0
 0001081,-0.00001262,0.00000745,0.00101407,0.00009976,0.00164058,-0.000
 18919,0.00011398,0.00099979,-0.00994666,0.12233725,0.07956162,-0.00013
 735,-0.00081019,-0.00031567,-0.00068063,-0.00048239,0.00074149,0.00018
 582,-0.00080601,-0.00001358,0.00030776,-0.00017912,0.00024971,0.000004
 33,0.00004312,-0.00008847,-0.00000357,-0.00001297,0.00001215,-0.000010
 00,-0.00002779,0.00001165,-0.00000562,0.00003052,-0.00002163,-0.000035
 92,0.00000949,-0.00001117,0.00005810,0.00010225,-0.00007277,-0.0000972
 1,-0.00020783,0.00020832,0.00119439,-0.00001098,0.00048297,-0.00414988
 ,0.00061907,-0.00012022,0.00040353,-0.00024346,-0.00039052,-0.00077284
 ,-0.00016762,-0.00065152,-0.01022230,0.00106141,0.00181009,0.00089983,
 -0.00074747,0.00181742,0.00033246,-0.00007927,0.00009226,0.00079973,0.
 00084335,-0.00006856,-0.00011949,-0.00035219,-0.00033003,-0.30023635,0
 .03418632,0.03697504,0.00020913,-0.00034086,0.00072063,0.00003546,0.00
 005396,0.00004936,0.00008385,0.00009852,-0.00007573,0.00001207,0.00000
 105,-0.00000608,0.00000322,0.00000303,0.00000574,0.00001273,-0.0000082
 8,-0.00002159,-0.00000100,0.00000766,-0.00000342,-0.00000454,0.0000176
 3,-0.00000866,-0.00000351,-0.00000357,0.00000631,-0.00026208,0.0001413
 9,0.00013271,0.00016692,0.00013008,0.00013808,0.00019525,-0.00017609,0
 .00019600,-0.00069559,-0.00006071,0.00005618,-0.00010637,-0.00013597,-
 0.00000419,0.00015401,-0.00001014,0.00015255,-0.00010422,0.00002503,0.
 00003594,0.00023147,0.00004838,0.00006657,0.00009363,-0.00056183,-0.00
 016191,0.00001886,0.00000306,-0.00000206,0.32476677,-0.00007660,0.0000
 5918,-0.00019571,-0.00108978,-0.00318732,0.00070965,0.00006872,0.00006
 944,0.00004620,0.00070851,0.00164841,0.00031600,0.00007248,0.00006067,
 0.00015124,-0.00004486,-0.00000183,-0.00004116,0.00000123,-0.00001167,
 0.00002203,-0.00001455,-0.00002367,0.00001738,0.00009787,0.00001787,0.
 00001386,-0.00007081,-0.00020363,0.00027465,0.00046514,0.00047484,-0.0
 0041388,-0.00067011,-0.00323502,-0.00411050,0.02681557,-0.00466931,-0.
 00400967,-0.00008617,0.00042811,0.00133050,-0.00078397,0.00005426,-0.0
 0092925,-0.02542679,0.00191463,0.00398762,-0.00059691,-0.00306108,0.00
 417231,-0.00000946,-0.00054766,0.00000351,-0.00139088,0.00140399,-0.00
 052927,0.00008651,-0.00007008,-0.00000301,0.03380730,-0.04880045,-0.00
 528302,0.00018035,-0.00007186,0.00031228,-0.00019963,-0.00001012,0.000
 08040,-0.00014337,0.00023886,-0.00001843,-0.00001276,-0.00000519,0.000
 00265,-0.00000835,-0.00000214,-0.00000318,-0.00000858,-0.00000511,0.00
 000345,-0.00000395,-0.00000712,0.00000209,0.00000686,-0.00004139,-0.00
 000086,0.00001141,0.00000884,-0.00001085,0.00135902,-0.00046622,-0.000
 11084,-0.00012934,-0.00009997,0.00012977,-0.00024535,0.00013064,-0.000
 15693,-0.00150072,-0.00009521,0.00011620,-0.00037268,-0.00004354,0.000
 02544,-0.00001479,-0.00001498,0.00000028,0.00002397,0.00018066,0.00001
 771,0.00016896,0.00025073,0.00008878,0.00052044,0.00000519,-0.00000906
 ,0.00005077,0.00000083,-0.00008885,-0.03355330,0.05835505,-0.00014911,
 0.00018471,-0.00002666,0.00020588,0.00002027,0.00047625,-0.00015261,0.
 00014974,-0.00010075,-0.00011281,0.00080781,0.00033390,-0.00005119,0.0
 0008021,0.00003096,-0.00001180,-0.00001933,0.00003333,0.00001140,-0.00
 001107,-0.00000685,-0.00003754,-0.00003579,0.00000812,0.00007707,0.000
 03582,0.00001047,-0.00002984,-0.00018558,0.00014203,0.00027452,0.00019
 519,-0.00031406,-0.00061133,-0.00227597,-0.00205578,0.01741144,-0.0018
 4287,-0.00371887,0.00051644,-0.00015449,0.00042543,0.00099685,0.000012
 88,0.00018241,0.01644629,-0.00135885,-0.00369581,-0.00019056,0.0021826
 5,-0.00153346,-0.00097639,0.00012813,-0.00047567,0.00003689,-0.0009395
 4,0.00065877,0.00000871,0.00024425,0.00007056,0.03596492,-0.00493566,-
 0.05507197,-0.00007768,0.00007885,-0.00007310,-0.00000751,0.00001168,0
 .00000330,-0.00005853,0.00011203,-0.00003469,-0.00000566,-0.00000732,0
 .00000652,0.00000057,0.00000141,0.00000227,-0.00000576,0.00000559,0.00
 000694,0.00000022,-0.00000879,-0.00000032,0.00000529,-0.00002417,0.000
 00900,0.00000832,0.00000226,-0.00001077,0.00089027,-0.00026435,0.00001
 382,-0.00011108,0.00001589,0.00018761,-0.00013067,-0.00017347,-0.00025
 130,0.00081382,0.00003416,-0.00001200,0.00030847,0.00004156,-0.0001163
 2,0.00001959,0.00000355,0.00057761,0.00002762,-0.00001672,0.00029015,-
 0.00013233,-0.00013371,-0.00009336,-0.00033465,0.00013958,0.00002070,0
 .00004487,-0.00000036,0.00001758,-0.04443054,0.00439938,0.05828889,0.0
 0013916,0.00019711,0.00018809,-0.00039714,0.00043459,-0.00067425,-0.00
 010589,-0.00039287,0.00005954,0.00008308,-0.00015787,-0.00028520,0.000
 04653,-0.00000755,-0.00000427,-0.00000073,-0.00001813,0.00000999,0.000
 00123,0.00000138,0.00000072,-0.00002511,-0.00001311,0.00001479,0.00001
 902,0.00002021,-0.00000547,-0.00002282,-0.00005906,0.00000383,0.000024
 81,0.00001976,-0.00014514,0.00001581,-0.00029296,0.00003645,0.00187049
 ,-0.00134349,0.00540903,0.00041986,0.00044213,0.00071833,-0.00096327,-
 0.00190687,0.00154850,0.00569088,0.00089020,0.01069490,0.00035259,0.00
 070043,-0.00014247,-0.00220004,0.00040751,0.00061826,0.00003034,0.0003
 6050,-0.00033802,-0.00002945,-0.00034141,-0.00014447,-0.10777012,0.010
 83300,-0.11578985,0.00075036,-0.00020944,0.00122503,0.00001715,-0.0000
 0135,-0.00002480,-0.00002936,-0.00003945,0.00000543,-0.00000412,-0.000
 00015,0.00000064,-0.00000374,0.00000028,-0.00000423,-0.00000202,-0.000
 00325,0.00000293,-0.00000147,-0.00000171,0.00000226,0.00000223,-0.0000
 0808,0.00000372,0.00000298,0.00000023,-0.00000168,0.00013601,-0.000177
 32,-0.00011335,0.00024715,0.00011583,0.00021948,0.00021132,-0.00008731
 ,0.00023249,0.00019706,0.00009868,-0.00017654,0.00002747,-0.00006034,-
 0.00011723,-0.00327629,0.00038572,0.00132083,0.00012160,-0.00005797,0.
 00006859,0.00001689,0.00000831,0.00005156,0.00005823,-0.00003917,-0.00
 002062,-0.00002117,-0.00000217,0.00006696,-0.01252089,0.00200862,-0.02
 645185,0.11689137,-0.00043715,-0.00033397,0.00028524,0.00013432,-0.000
 18071,-0.00004847,-0.00019215,0.00003334,-0.00004735,-0.00000451,0.000
 73299,0.00047036,-0.00009750,-0.00005083,-0.00003408,0.00002602,-0.000
 01536,0.00002574,0.00001127,0.00000143,-0.00001294,0.00000129,0.000006
 57,0.00001123,0.00001981,-0.00002065,0.00000316,0.00000839,-0.00000045
 ,0.00006505,0.00011345,-0.00002545,-0.00005899,-0.00058012,0.00081623,
 0.00086255,-0.01345444,0.00446135,-0.02163942,0.00218674,-0.00382794,-
 0.00316783,-0.00334465,-0.00482273,-0.00102768,0.01214736,0.00000405,0
 .02173434,0.00104692,0.00081536,-0.00120960,0.00036241,0.00014258,-0.0
 0004138,-0.00002250,0.00087088,0.00079720,0.00004418,-0.00056209,-0.00
 063342,0.01111913,-0.04820940,0.02083227,0.00166607,0.00012624,0.00281
 395,0.00002166,0.00000579,-0.00001064,-0.00001451,0.00003491,0.0000702
 2,-0.00000038,-0.00000271,0.00000388,0.00000204,0.00000844,-0.00000302
 ,-0.00000381,0.00000340,0.00000073,0.00000537,-0.00000526,-0.00000053,
 0.00000127,-0.00000605,-0.00000293,0.00000398,0.00000153,-0.00000239,-
 0.00018768,0.00008765,0.00002536,-0.00045003,0.00079423,-0.00133336,-0
 .00004448,0.00007386,0.00009671,0.00011088,-0.00000826,-0.00003323,-0.
 00015868,-0.00002297,-0.00009796,0.00034381,0.00061291,-0.00015765,-0.
 00002368,0.00000416,-0.00005260,-0.00015764,-0.00023526,-0.00002595,-0
 .00001905,-0.00008081,0.00000092,-0.00003266,0.00007257,-0.00000365,0.
 00155270,-0.00062761,0.00350047,-0.01170345,0.04932805,0.00042321,0.00
 051750,0.00033075,-0.00002063,-0.00044250,-0.00064952,0.00026308,0.000
 09708,0.00018037,0.00001483,-0.00001687,0.00005341,-0.00012390,-0.0000
 7870,0.00000525,0.00009323,-0.00009404,0.00004411,0.00001120,-0.000000
 93,0.00000163,-0.00007831,-0.00001595,0.00000200,0.00004273,0.00006143
 ,-0.00001870,0.00004114,-0.00012070,-0.00000922,0.00013030,-0.00018207
 ,-0.00000571,-0.00087930,0.00002964,0.00017513,-0.00672384,0.00281441,
 -0.01327156,0.00137956,-0.00276157,-0.00164216,0.00115706,0.00165319,-
 0.00004873,-0.00605538,-0.00051344,-0.01135353,-0.00090381,0.00018182,
 0.00039356,-0.00053130,0.00003710,-0.00044317,0.00019941,-0.00031694,-
 0.00080683,0.00012300,-0.00055088,0.00021124,-0.11253797,0.02092124,-0
 .26222693,-0.00062987,0.00057766,-0.00181542,-0.00002121,0.00002422,0.
 00001025,-0.00003244,-0.00010057,0.00003899,-0.00000045,-0.00000194,0.
 00000384,0.00000325,0.00001090,-0.00000462,-0.00000021,-0.00000161,-0.
 00000083,0.00000589,-0.00000225,0.00000355,0.00000133,0.00000106,0.000
 00595,0.00000723,-0.00000533,0.00000174,0.00001870,0.00007866,0.000042
 32,-0.00051981,0.00043670,-0.00065276,-0.00012992,-0.00000607,0.000071
 49,0.00000239,-0.00007640,0.00006649,0.00023237,-0.00005545,-0.0001272
 4,0.00031147,0.00002811,0.00119753,-0.00004704,-0.00002365,0.00052263,
 -0.00000026,0.00022128,0.00009282,0.00002106,0.00003375,0.00000382,-0.
 00002101,-0.00009467,0.00021221,0.00283713,-0.00030889,0.00579510,0.12
 193709,-0.02195432,0.28361076\\0.00000035,0.00000339,0.00000052,0.0000
 0245,0.00000581,-0.00001077,-0.00000125,0.00000059,-0.00000671,-0.0000
 0858,0.00000855,0.00000863,0.00000455,-0.00000550,0.00000552,0.0000056
 2,0.00000342,0.00000664,-0.00000014,0.00000030,0.00000031,-0.00000604,
 0.00000797,-0.00000274,-0.00000605,0.00000670,-0.00000370,-0.00000547,
 -0.00001087,0.00000886,-0.00000687,-0.00000335,0.00000279,0.00002362,-
 0.00001488,-0.00000369,-0.00002345,0.00000748,0.00001628,0.00001398,-0
 .00000118,-0.00000994,-0.00001601,-0.00000031,-0.00000837,0.00001625,-
 0.00000650,0.00000088,0.00000080,0.00000195,0.00000370,-0.00000560,0.0
 0000352,-0.00000081,-0.00000085,0.00000114,0.00000057,-0.00000210,-0.0
 0000138,-0.00000300,0.00000767,-0.00000491,-0.00000915,0.00001389,-0.0
 0000429,0.00000190,-0.00000055,0.00000147,-0.00000160,0.00000474,0.000
 00061,-0.00000544,-0.00000367,0.00000010,0.00000103,-0.00000424,0.0000
 0078,-0.00000218,-0.00000486,0.00000178,-0.00000037,-0.00000311,-0.000
 00017,0.00000415,-0.00000432,-0.00000341,0.00000746,-0.00000189,0.0000
 0156,0.00000378,0.00000039,0.00000482,0.00000020,0.00000041,-0.0000009
 6,-0.00000304,-0.00000051,-0.00000070,0.00000170,0.00000258,-0.0000029
 2,-0.00000133,0.00000229,0.00000015,-0.00000071,0.00000082,-0.00000129
 ,0.00000413,0.00000490,-0.00000501,0.00000532,0.00000260,0.00000128,-0
 .00000247,0.00000040,-0.00000072,-0.00000392,0.00000392,0.00000260,-0.
 00000331,-0.00000408,0.00000058,-0.00000128,-0.00000262,0.00000182,0.0
 0000015\\\@


 A DANDELION FROM A LOVER MEANS MORE THAN AN ORCHID FROM A FRIEND.
 Job cpu time:       0 days 13 hours 35 minutes  5.4 seconds.
 Elapsed time:       0 days 13 hours 37 minutes 19.5 seconds.
 File lengths (MBytes):  RWF=   1211 Int=      0 D2E=      0 Chk=     34 Scr=      1
 Normal termination of Gaussian 16 at Sun Jul 30 20:50:56 2023.
 
 Sun Jul 30 08:50:56 PM IDT 2023
 ark
 109247.200u 26.607s 30:26:38.32 99.7%	0+0k 0+25704408io 0pf+0w
 
 ****** xrung16 messages ******
 Job 2-46_neutral_pka is run from:
 /var/spool/scratch/tchem07/g16/2-46_neutral_pka
 109247.195u 26.589s 30:26:38.29 99.7%	0+0k 0+25704376io 0pf+0w
