 Entering Gaussian System, Link 0=g16
 Initial command:
 /usr/local/gaussian/g16c01_gpu/g16/l1.exe "/scratch/job.16404004/Gau-210545.inp" -scrdir="/scratch/job.16404004/"
 Entering Link 1 = /usr/local/gaussian/g16c01_gpu/g16/l1.exe PID=    210546.
  
 Copyright (c) 1988-2019, Gaussian, Inc.  All Rights Reserved.
  
 This is part of the Gaussian(R) 16 program.  It is based on
 the Gaussian(R) 09 system (copyright 2009, Gaussian, Inc.),
 the Gaussian(R) 03 system (copyright 2003, Gaussian, Inc.),
 the Gaussian(R) 98 system (copyright 1998, Gaussian, Inc.),
 the Gaussian(R) 94 system (copyright 1995, Gaussian, Inc.),
 the Gaussian 92(TM) system (copyright 1992, Gaussian, Inc.),
 the Gaussian 90(TM) system (copyright 1990, Gaussian, Inc.),
 the Gaussian 88(TM) system (copyright 1988, Gaussian, Inc.),
 the Gaussian 86(TM) system (copyright 1986, Carnegie Mellon
 University), and the Gaussian 82(TM) system (copyright 1983,
 Carnegie Mellon University). Gaussian is a federally registered
 trademark of Gaussian, Inc.
  
 This software contains proprietary and confidential information,
 including trade secrets, belonging to Gaussian, Inc.
  
 This software is provided under written license and may be
 used, copied, transmitted, or stored only in accord with that
 written license.
  
 The following legend is applicable only to US Government
 contracts under FAR:
  
                    RESTRICTED RIGHTS LEGEND
  
 Use, reproduction and disclosure by the US Government is
 subject to restrictions as set forth in subparagraphs (a)
 and (c) of the Commercial Computer Software - Restricted
 Rights clause in FAR 52.227-19.
  
 Gaussian, Inc.
 340 Quinnipiac St., Bldg. 40, Wallingford CT 06492
  
  
 ---------------------------------------------------------------
 Warning -- This program may not be used in any manner that
 competes with the business of Gaussian, Inc. or will provide
 assistance to any competitor of Gaussian, Inc.  The licensee
 of this program is prohibited from giving any competitor of
 Gaussian, Inc. access to this program.  By using this program,
 the user acknowledges that Gaussian, Inc. is engaged in the
 business of creating and licensing software in the field of
 computational chemistry and represents and warrants to the
 licensee that it is not a competitor of Gaussian, Inc. and that
 it will not use this program in any manner prohibited above.
 ---------------------------------------------------------------
  

 Cite this work as:
 Gaussian 16, Revision C.01,
 M. J. Frisch, G. W. Trucks, H. B. Schlegel, G. E. Scuseria, 
 M. A. Robb, J. R. Cheeseman, G. Scalmani, V. Barone, 
 G. A. Petersson, H. Nakatsuji, X. Li, M. Caricato, A. V. Marenich, 
 J. Bloino, B. G. Janesko, R. Gomperts, B. Mennucci, H. P. Hratchian, 
 J. V. Ortiz, A. F. Izmaylov, J. L. Sonnenberg, D. Williams-Young, 
 F. Ding, F. Lipparini, F. Egidi, J. Goings, B. Peng, A. Petrone, 
 T. Henderson, D. Ranasinghe, V. G. Zakrzewski, J. Gao, N. Rega, 
 G. Zheng, W. Liang, M. Hada, M. Ehara, K. Toyota, R. Fukuda, 
 J. Hasegawa, M. Ishida, T. Nakajima, Y. Honda, O. Kitao, H. Nakai, 
 T. Vreven, K. Throssell, J. A. Montgomery, Jr., J. E. Peralta, 
 F. Ogliaro, M. J. Bearpark, J. J. Heyd, E. N. Brothers, K. N. Kudin, 
 V. N. Staroverov, T. A. Keith, R. Kobayashi, J. Normand, 
 K. Raghavachari, A. P. Rendell, J. C. Burant, S. S. Iyengar, 
 J. Tomasi, M. Cossi, J. M. Millam, M. Klene, C. Adamo, R. Cammi, 
 J. W. Ochterski, R. L. Martin, K. Morokuma, O. Farkas, 
 J. B. Foresman, and D. J. Fox, Gaussian, Inc., Wallingford CT, 2019.
 
 ******************************************
 Gaussian 16:  ES64L-G16RevC.01  3-Jul-2019
                 1-Sep-2023 
 ******************************************
 %chk=NH3.chk
 -------------------------------------------------------
 #P M062X/6-31+G(d,p) Opt Freq SCRF=(SMD, Solvent=Water)
 -------------------------------------------------------
 1/18=20,19=15,26=3,38=1/1,3;
 2/9=110,12=2,17=6,18=5,40=1/2;
 3/5=1,6=6,7=111,11=2,25=1,30=1,70=32201,71=1,72=1,74=-55/1,2,3;
 4//1;
 5/5=2,38=5,53=1/2;
 6/7=2,8=2,9=2,10=2,28=1/1;
 7//1,2,3,16;
 1/18=20,19=15,26=3/3(2);
 2/9=110/2;
 99//99;
 2/9=110/2;
 3/5=1,6=6,7=111,11=2,25=1,30=1,70=32205,71=1,72=1,74=-55/1,2,3;
 4/5=5,16=3,69=1/1;
 5/5=2,38=5,53=1/2;
 7//1,2,3,16;
 1/18=20,19=15,26=3/3(-5);
 2/9=110/2;
 6/7=2,8=2,9=2,10=2,19=2,28=1/1;
 99/9=1/99;
 Leave Link    1 at Fri Sep  1 15:13:40 2023, MaxMem=           0 cpu:               0.0 elap:               0.0
 (Enter /usr/local/gaussian/g16c01_gpu/g16/l101.exe)
 -------------------
 Title Card Required
 -------------------
 Symbolic Z-matrix:
 Charge =  0 Multiplicity = 1
 N
 H                    1    B1
 H                    1    B2       2    A1
 H                    1    B3       3    A2       2    D1       0
       Variables:
  B1                    1.                       
  B2                    1.                       
  B3                    1.                       
  A1                  109.47122                  
  A2                  109.47122                  
  D1                 -120.                       
 
     2 tetrahedral angles replaced.
 ITRead=  0  0  0  0
 MicOpt= -1 -1 -1 -1
 NAtoms=      4 NQM=        4 NQMF=       0 NMMI=      0 NMMIF=      0
                NMic=       0 NMicF=      0.
                    Isotopes and Nuclear Properties:
 (Nuclear quadrupole moments (NQMom) in fm**2, nuclear magnetic moments (NMagM)
  in nuclear magnetons)

  Atom         1           2           3           4
 IAtWgt=          14           1           1           1
 AtmWgt=  14.0030740   1.0078250   1.0078250   1.0078250
 NucSpn=           2           1           1           1
 AtZEff=  -0.0000000  -0.0000000  -0.0000000  -0.0000000
 NQMom=    2.0440000   0.0000000   0.0000000   0.0000000
 NMagM=    0.4037610   2.7928460   2.7928460   2.7928460
 AtZNuc=   7.0000000   1.0000000   1.0000000   1.0000000
 Leave Link  101 at Fri Sep  1 15:13:40 2023, MaxMem=   104857600 cpu:               0.1 elap:               0.1
 (Enter /usr/local/gaussian/g16c01_gpu/g16/l103.exe)

 GradGradGradGradGradGradGradGradGradGradGradGradGradGradGradGradGradGrad
 Berny optimization.
 Initialization pass.
                           ----------------------------
                           !    Initial Parameters    !
                           ! (Angstroms and Degrees)  !
 --------------------------                            --------------------------
 ! Name  Definition              Value          Derivative Info.                !
 --------------------------------------------------------------------------------
 ! R1    R(1,2)                  1.0            estimate D2E/DX2                !
 ! R2    R(1,3)                  1.0            estimate D2E/DX2                !
 ! R3    R(1,4)                  1.0            estimate D2E/DX2                !
 ! A1    A(2,1,3)              109.4712         estimate D2E/DX2                !
 ! A2    A(2,1,4)              109.4712         estimate D2E/DX2                !
 ! A3    A(3,1,4)              109.4712         estimate D2E/DX2                !
 ! D1    D(2,1,4,3)           -120.0            estimate D2E/DX2                !
 --------------------------------------------------------------------------------
 Trust Radius=3.00D-01 FncErr=1.00D-07 GrdErr=1.00D-06 EigMax=2.50D+02 EigMin=1.00D-04
 Number of steps in this run=     20 maximum allowed number of steps=    100.
 GradGradGradGradGradGradGradGradGradGradGradGradGradGradGradGradGradGrad

 Leave Link  103 at Fri Sep  1 15:13:40 2023, MaxMem=   104857600 cpu:               0.0 elap:               0.0
 (Enter /usr/local/gaussian/g16c01_gpu/g16/l202.exe)
                          Input orientation:                          
 ---------------------------------------------------------------------
 Center     Atomic      Atomic             Coordinates (Angstroms)
 Number     Number       Type             X           Y           Z
 ---------------------------------------------------------------------
      1          7           0        0.000000    0.000000    0.000000
      2          1           0        0.000000    0.000000    1.000000
      3          1           0        0.942809    0.000000   -0.333333
      4          1           0       -0.471405   -0.816497   -0.333333
 ---------------------------------------------------------------------
                    Distance matrix (angstroms):
                    1          2          3          4
     1  N    0.000000
     2  H    1.000000   0.000000
     3  H    1.000000   1.632993   0.000000
     4  H    1.000000   1.632993   1.632993   0.000000
 Stoichiometry    H3N
 Framework group  C3V[C3(N),3SGV(H)]
 Deg. of freedom     2
 Full point group                 C3V     NOp   6
 Largest Abelian subgroup         CS      NOp   2
 Largest concise Abelian subgroup CS      NOp   2
                         Standard orientation:                         
 ---------------------------------------------------------------------
 Center     Atomic      Atomic             Coordinates (Angstroms)
 Number     Number       Type             X           Y           Z
 ---------------------------------------------------------------------
      1          7           0        0.000000    0.000000    0.100000
      2          1           0       -0.000000    0.942809   -0.233333
      3          1           0       -0.816497   -0.471405   -0.233333
      4          1           0        0.816497   -0.471405   -0.233333
 ---------------------------------------------------------------------
 Rotational constants (GHZ):         311.9519848         311.9519848         188.0456642
 Leave Link  202 at Fri Sep  1 15:13:40 2023, MaxMem=   104857600 cpu:               0.0 elap:               0.0
 (Enter /usr/local/gaussian/g16c01_gpu/g16/l301.exe)
 Standard basis: 6-31+G(d,p) (6D, 7F)
 Ernie: Thresh=  0.10000D-02 Tol=  0.10000D-05 Strict=F.
 There are    23 symmetry adapted cartesian basis functions of A'  symmetry.
 There are    11 symmetry adapted cartesian basis functions of A"  symmetry.
 There are    23 symmetry adapted basis functions of A'  symmetry.
 There are    11 symmetry adapted basis functions of A"  symmetry.
    34 basis functions,    53 primitive gaussians,    34 cartesian basis functions
     5 alpha electrons        5 beta electrons
       nuclear repulsion energy        12.0848820420 Hartrees.
 IExCor= 4336 DFT=T Ex+Corr=M062X ExCW=0 ScaHFX=  0.540000
 ScaDFX=  1.000000  1.000000  1.000000  1.000000 ScalE2=  1.000000  1.000000
 IRadAn=      5 IRanWt=     -1 IRanGd=            0 ICorTp=0 IEmpDi=  4
 NAtoms=    4 NActive=    4 NUniq=    2 SFac= 4.00D+00 NAtFMM=   60 NAOKFM=F Big=F
 Integral buffers will be    131072 words long.
 Raffenetti 2 integral format.
 Two-electron integral symmetry is turned on.
 ------------------------------------------------------------------------------
 Polarizable Continuum Model (PCM)
 =================================
 Model                : PCM.
 Atomic radii         : SMD-Coulomb.
 Polarization charges : Total charges.
 Charge compensation  : None.
 Solution method      : On-the-fly selection.
 Cavity type          : VdW (van der Waals Surface) (Alpha=1.000).
 Cavity algorithm     : GePol (No added spheres)
                        Default sphere list used, NSphG=    4.
                        Lebedev-Laikov grids with approx.  5.0 points / Ang**2.
                        Smoothing algorithm: York/Karplus (Gamma=1.0000).
                        Polarization charges: spherical gaussians, with
                                              point-specific exponents (IZeta= 3).
                        Self-potential: point-specific (ISelfS= 7).
                        Self-field    : sphere-specific E.n sum rule (ISelfD= 2).
 1st derivatives      : Analytical E(r).r(x)/FMM algorithm (CHGder, D1EAlg=3).
                        Cavity 1st derivative terms included.
 Solvent              : Water, Eps=  78.355300 Eps(inf)=   1.777849
 ------------------------------------------------------------------------------
 Spheres list:
 ISph  on   Nord     Re0    Alpha      Xe            Ye            Ze
    1   N      1    1.8900  1.000      0.000000      0.000000      0.100000
    2   H      2    1.2000  1.000     -0.000000      0.942809     -0.233333
    3   H      3    1.2000  1.000     -0.816497     -0.471405     -0.233333
    4   H      4    1.2000  1.000      0.816497     -0.471405     -0.233333
 ------------------------------------------------------------------------------
 GePol: Number of generator spheres                  =       4
 GePol: Total number of spheres                      =       4
 GePol: Number of exposed spheres                    =       4 (100.00%)
 GePol: Number of points                             =     384
 GePol: Average weight of points                     =       0.12
 GePol: Minimum weight of points                     =   0.29D-06
 GePol: Maximum weight of points                     =    0.17992
 GePol: Number of points with low weight             =      12
 GePol: Fraction of low-weight points (<1% of avg)   =       3.13%
 GePol: Cavity surface area                          =     47.634 Ang**2
 GePol: Cavity volume                                =     30.202 Ang**3
 ------------------------------------------------------------------------------
 Atomic radii for non-electrostatic terms: SMD-CDS.
 ------------------------------------------------------------------------------
 PCM non-electrostatic energy =         0.0033655925 Hartrees.
 Nuclear repulsion after PCM non-electrostatic terms =       12.0882476345 Hartrees.
 Leave Link  301 at Fri Sep  1 15:13:40 2023, MaxMem=   104857600 cpu:               0.1 elap:               0.1
 (Enter /usr/local/gaussian/g16c01_gpu/g16/l302.exe)
 NPDir=0 NMtPBC=     1 NCelOv=     1 NCel=       1 NClECP=     1 NCelD=      1
         NCelK=      1 NCelE2=     1 NClLst=     1 CellRange=     0.0.
 One-electron integrals computed using PRISM.
 One-electron integral symmetry used in STVInt
 NBasis=    34 RedAO= T EigKep=  1.49D-02  NBF=    23    11
 NBsUse=    34 1.00D-06 EigRej= -1.00D+00 NBFU=    23    11
 Precomputing XC quadrature grid using
 IXCGrd= 4 IRadAn=           5 IRanWt=          -1 IRanGd=           0 AccXCQ= 0.00D+00.
 Generated NRdTot=       0 NPtTot=           0 NUsed=           0 NTot=          32
 NSgBfM=    34    34    34    34    34 MxSgAt=     4 MxSgA2=     4.
 Leave Link  302 at Fri Sep  1 15:13:40 2023, MaxMem=   104857600 cpu:               0.1 elap:               0.1
 (Enter /usr/local/gaussian/g16c01_gpu/g16/l303.exe)
 DipDrv:  MaxL=1.
 Leave Link  303 at Fri Sep  1 15:13:40 2023, MaxMem=   104857600 cpu:               0.0 elap:               0.0
 (Enter /usr/local/gaussian/g16c01_gpu/g16/l401.exe)
 ExpMin= 6.39D-02 ExpMax= 4.17D+03 ExpMxC= 6.27D+02 IAcc=3 IRadAn=         5 AccDes= 0.00D+00
 Harris functional with IExCor= 1009 and IRadAn=       5 diagonalized for initial guess.
 HarFok:  IExCor= 1009 AccDes= 0.00D+00 IRadAn=         5 IDoV= 1 UseB2=F ITyADJ=14
 ICtDFT=  3500011 ScaDFX=  1.000000  1.000000  1.000000  1.000000
 FoFCou: FMM=F IPFlag=           0 FMFlag=      100000 FMFlg1=           0
         NFxFlg=           0 DoJE=T BraDBF=F KetDBF=T FulRan=T
         wScrn=  0.000000 ICntrl=       500 IOpCl=  0 I1Cent=   200000004 NGrid=           0
         NMat0=    1 NMatS0=      1 NMatT0=    0 NMatD0=    1 NMtDS0=    0 NMtDT0=    0
 Petite list used in FoFCou.
 Harris En= -56.5301523873244    
 JPrj=0 DoOrth=F DoCkMO=F.
 Initial guess orbital symmetries:
       Occupied  (A1) (A1) (E) (E) (A1)
       Virtual   (A1) (E) (E) (A1) (E) (E) (A1) (E) (E) (A1) (E)
                 (E) (A1) (A1) (E) (E) (A1) (A2) (E) (E) (E) (E)
                 (A1) (E) (E) (A1) (E) (E) (A1)
 The electronic state of the initial guess is 1-A1.
 Leave Link  401 at Fri Sep  1 15:13:41 2023, MaxMem=   104857600 cpu:               0.2 elap:               0.2
 (Enter /usr/local/gaussian/g16c01_gpu/g16/l502.exe)
 Keep R1 ints in memory in symmetry-blocked form, NReq=1618434.
 FoFCou: FMM=F IPFlag=           0 FMFlag=           0 FMFlg1=           0
         NFxFlg=           0 DoJE=F BraDBF=F KetDBF=F FulRan=T
         wScrn=  0.000000 ICntrl=       600 IOpCl=  0 I1Cent=           0 NGrid=           0
         NMat0=    1 NMatS0=    595 NMatT0=    0 NMatD0=    1 NMtDS0=    0 NMtDT0=    0
 Petite list used in FoFCou.
 Closed shell SCF:
 Using DIIS extrapolation, IDIIS=  1040.
 NGot=   104857600 LenX=   104761960 LenY=   104760363
 Requested convergence on RMS density matrix=1.00D-08 within 128 cycles.
 Requested convergence on MAX density matrix=1.00D-06.
 Requested convergence on             energy=1.00D-06.
 No special actions if energy rises.

 Cycle   1  Pass 1  IDiag  1:
 Inv3:  Mode=1 IEnd=      442368.
 Iteration    1 A*A^-1 deviation from unit magnitude is 2.11D-15 for    366.
 Iteration    1 A*A^-1 deviation from orthogonality  is 8.88D-16 for    376    234.
 Iteration    1 A^-1*A deviation from unit magnitude is 2.33D-15 for    378.
 Iteration    1 A^-1*A deviation from orthogonality  is 1.07D-15 for    369    315.
 E= -56.4595458027947    
 DIIS: error= 5.65D-02 at cycle   1 NSaved=   1.
 NSaved= 1 IEnMin= 1 EnMin= -56.4595458027947     IErMin= 1 ErrMin= 5.65D-02
 ErrMax= 5.65D-02  0.00D+00 EMaxC= 1.00D-01 BMatC= 8.99D-02 BMatP= 8.99D-02
 IDIUse=3 WtCom= 4.35D-01 WtEn= 5.65D-01
 Coeff-Com:  0.100D+01
 Coeff-En:   0.100D+01
 Coeff:      0.100D+01
 Gap=     0.285 Goal=   None    Shift=    0.000
 GapD=    0.285 DampG=1.000 DampE=0.500 DampFc=0.5000 IDamp=-1.
 Damping current iteration by 5.00D-01
 RMSDP=1.06D-02 MaxDP=1.69D-01              OVMax= 2.09D-01

 Cycle   2  Pass 1  IDiag  1:
 E= -56.4952868220527     Delta-E=       -0.035741019258 Rises=F Damp=T
 DIIS: error= 1.49D-02 at cycle   2 NSaved=   2.
 NSaved= 2 IEnMin= 2 EnMin= -56.4952868220527     IErMin= 2 ErrMin= 1.49D-02
 ErrMax= 1.49D-02  0.00D+00 EMaxC= 1.00D-01 BMatC= 2.64D-03 BMatP= 8.99D-02
 IDIUse=3 WtCom= 8.51D-01 WtEn= 1.49D-01
 Coeff-Com:  0.283D-01 0.972D+00
 Coeff-En:   0.593D-01 0.941D+00
 Coeff:      0.329D-01 0.967D+00
 Gap=     0.390 Goal=   None    Shift=    0.000
 RMSDP=1.03D-03 MaxDP=8.71D-03 DE=-3.57D-02 OVMax= 1.08D-01

 Cycle   3  Pass 1  IDiag  1:
 E= -56.5352312858206     Delta-E=       -0.039944463768 Rises=F Damp=F
 DIIS: error= 9.17D-04 at cycle   3 NSaved=   3.
 NSaved= 3 IEnMin= 3 EnMin= -56.5352312858206     IErMin= 3 ErrMin= 9.17D-04
 ErrMax= 9.17D-04  0.00D+00 EMaxC= 1.00D-01 BMatC= 1.27D-05 BMatP= 2.64D-03
 IDIUse=3 WtCom= 9.91D-01 WtEn= 9.17D-03
 Coeff-Com: -0.870D-02-0.244D-02 0.101D+01
 Coeff-En:   0.000D+00 0.000D+00 0.100D+01
 Coeff:     -0.862D-02-0.242D-02 0.101D+01
 Gap=     0.394 Goal=   None    Shift=    0.000
 RMSDP=1.53D-04 MaxDP=1.93D-03 DE=-3.99D-02 OVMax= 2.51D-03

 Cycle   4  Pass 1  IDiag  1:
 E= -56.5352466646765     Delta-E=       -0.000015378856 Rises=F Damp=F
 DIIS: error= 1.23D-04 at cycle   4 NSaved=   4.
 NSaved= 4 IEnMin= 4 EnMin= -56.5352466646765     IErMin= 4 ErrMin= 1.23D-04
 ErrMax= 1.23D-04  0.00D+00 EMaxC= 1.00D-01 BMatC= 6.61D-07 BMatP= 1.27D-05
 IDIUse=3 WtCom= 9.99D-01 WtEn= 1.23D-03
 Coeff-Com:  0.326D-02-0.470D-02-0.916D-01 0.109D+01
 Coeff-En:   0.000D+00 0.000D+00 0.000D+00 0.100D+01
 Coeff:      0.325D-02-0.470D-02-0.915D-01 0.109D+01
 Gap=     0.395 Goal=   None    Shift=    0.000
 RMSDP=3.84D-05 MaxDP=5.02D-04 DE=-1.54D-05 OVMax= 4.46D-04

 Cycle   5  Pass 1  IDiag  1:
 E= -56.5352474704766     Delta-E=       -0.000000805800 Rises=F Damp=F
 DIIS: error= 1.95D-05 at cycle   5 NSaved=   5.
 NSaved= 5 IEnMin= 5 EnMin= -56.5352474704766     IErMin= 5 ErrMin= 1.95D-05
 ErrMax= 1.95D-05  0.00D+00 EMaxC= 1.00D-01 BMatC= 1.15D-08 BMatP= 6.61D-07
 IDIUse=1 WtCom= 1.00D+00 WtEn= 0.00D+00
 Coeff-Com:  0.271D-03-0.296D-03-0.193D-01 0.192D-01 0.100D+01
 Coeff:      0.271D-03-0.296D-03-0.193D-01 0.192D-01 0.100D+01
 Gap=     0.395 Goal=   None    Shift=    0.000
 RMSDP=9.24D-06 MaxDP=1.31D-04 DE=-8.06D-07 OVMax= 1.34D-04

 Cycle   6  Pass 1  IDiag  1:
 E= -56.5352475034551     Delta-E=       -0.000000032979 Rises=F Damp=F
 DIIS: error= 7.82D-06 at cycle   6 NSaved=   6.
 NSaved= 6 IEnMin= 6 EnMin= -56.5352475034551     IErMin= 6 ErrMin= 7.82D-06
 ErrMax= 7.82D-06  0.00D+00 EMaxC= 1.00D-01 BMatC= 7.49D-10 BMatP= 1.15D-08
 IDIUse=1 WtCom= 1.00D+00 WtEn= 0.00D+00
 Coeff-Com: -0.213D-03 0.280D-03 0.523D-02-0.640D-01-0.115D+00 0.117D+01
 Coeff:     -0.213D-03 0.280D-03 0.523D-02-0.640D-01-0.115D+00 0.117D+01
 Gap=     0.395 Goal=   None    Shift=    0.000
 RMSDP=3.29D-06 MaxDP=4.72D-05 DE=-3.30D-08 OVMax= 5.82D-05

 Cycle   7  Pass 1  IDiag  1:
 E= -56.5352475070179     Delta-E=       -0.000000003563 Rises=F Damp=F
 DIIS: error= 2.63D-06 at cycle   7 NSaved=   7.
 NSaved= 7 IEnMin= 7 EnMin= -56.5352475070179     IErMin= 7 ErrMin= 2.63D-06
 ErrMax= 2.63D-06  0.00D+00 EMaxC= 1.00D-01 BMatC= 1.61D-10 BMatP= 7.49D-10
 IDIUse=1 WtCom= 1.00D+00 WtEn= 0.00D+00
 Coeff-Com:  0.336D-04-0.293D-04-0.802D-03 0.118D-01-0.113D-01-0.145D+00
 Coeff-Com:  0.115D+01
 Coeff:      0.336D-04-0.293D-04-0.802D-03 0.118D-01-0.113D-01-0.145D+00
 Coeff:      0.115D+01
 Gap=     0.395 Goal=   None    Shift=    0.000
 RMSDP=2.94D-07 MaxDP=3.19D-06 DE=-3.56D-09 OVMax= 5.92D-06

 Cycle   8  Pass 1  IDiag  1:
 E= -56.5352475070453     Delta-E=       -0.000000000027 Rises=F Damp=F
 DIIS: error= 2.63D-06 at cycle   8 NSaved=   8.
 NSaved= 8 IEnMin= 8 EnMin= -56.5352475070453     IErMin= 7 ErrMin= 2.63D-06
 ErrMax= 2.63D-06  0.00D+00 EMaxC= 1.00D-01 BMatC= 1.51D-10 BMatP= 1.61D-10
 IDIUse=1 WtCom= 1.00D+00 WtEn= 0.00D+00
 Coeff-Com: -0.334D-05-0.306D-06 0.115D-03-0.102D-02 0.968D-03 0.148D-01
 Coeff-Com: -0.251D+00 0.124D+01
 Coeff:     -0.334D-05-0.306D-06 0.115D-03-0.102D-02 0.968D-03 0.148D-01
 Coeff:     -0.251D+00 0.124D+01
 Gap=     0.395 Goal=   None    Shift=    0.000
 RMSDP=5.74D-08 MaxDP=6.10D-07 DE=-2.74D-11 OVMax= 1.16D-06

 Cycle   9  Pass 1  IDiag  1:
 E= -56.5352475070448     Delta-E=        0.000000000001 Rises=F Damp=F
 DIIS: error= 2.63D-06 at cycle   9 NSaved=   9.
 NSaved= 9 IEnMin= 8 EnMin= -56.5352475070453     IErMin= 7 ErrMin= 2.63D-06
 ErrMax= 2.63D-06  0.00D+00 EMaxC= 1.00D-01 BMatC= 1.51D-10 BMatP= 1.51D-10
 IDIUse=1 WtCom= 1.00D+00 WtEn= 0.00D+00
 Coeff-Com: -0.792D-08 0.798D-06-0.116D-04 0.628D-05 0.480D-04-0.183D-03
 Coeff-Com:  0.236D-01-0.225D+00 0.120D+01
 Coeff:     -0.792D-08 0.798D-06-0.116D-04 0.628D-05 0.480D-04-0.183D-03
 Coeff:      0.236D-01-0.225D+00 0.120D+01
 Gap=     0.395 Goal=   None    Shift=    0.000
 RMSDP=6.40D-09 MaxDP=7.56D-08 DE= 5.33D-13 OVMax= 1.35D-07

 Error on total polarization charges =  0.01985
 SCF Done:  E(RM062X) =  -56.5352475070     A.U. after    9 cycles
            NFock=  9  Conv=0.64D-08     -V/T= 2.0084
 KE= 5.606428840488D+01 PE=-1.559112455416D+02 EE= 3.122346199518D+01
 SMD-CDS (non-electrostatic) energy       (kcal/mol) =       2.11
 (included in total energy above)
 Leave Link  502 at Fri Sep  1 15:13:43 2023, MaxMem=   104857600 cpu:               2.0 elap:               2.0
 (Enter /usr/local/gaussian/g16c01_gpu/g16/l601.exe)
 Copying SCF densities to generalized density rwf, IOpCl= 0 IROHF=0.

 **********************************************************************

            Population analysis using the SCF Density.

 **********************************************************************

 Orbital symmetries:
       Occupied  (A1) (A1) (E) (E) (A1)
       Virtual   (A1) (E) (E) (A1) (E) (E) (A1) (E) (E) (A1) (E)
                 (E) (A1) (A1) (E) (E) (A1) (A2) (E) (E) (E) (E)
                 (A1) (E) (E) (A1) (E) (E) (A1)
 The electronic state is 1-A1.
 Alpha  occ. eigenvalues --  -14.73156  -0.95169  -0.53173  -0.53173  -0.33230
 Alpha virt. eigenvalues --    0.06222   0.11161   0.11162   0.13639   0.26923
 Alpha virt. eigenvalues --    0.26923   0.30815   0.88265   0.88266   0.94524
 Alpha virt. eigenvalues --    1.00524   1.00525   1.12705   1.18273   1.48463
 Alpha virt. eigenvalues --    1.48464   1.95204   2.12942   2.30039   2.30039
 Alpha virt. eigenvalues --    2.49091   2.49091   2.78022   3.02630   3.02630
 Alpha virt. eigenvalues --    3.34677   3.45380   3.45380   4.00106
          Condensed to atoms (all electrons):
               1          2          3          4
     1  N    6.979738   0.347214   0.347214   0.347214
     2  H    0.347214   0.358837  -0.023256  -0.023256
     3  H    0.347214  -0.023256   0.358837  -0.023256
     4  H    0.347214  -0.023256  -0.023256   0.358837
 Mulliken charges:
               1
     1  N   -1.021381
     2  H    0.340460
     3  H    0.340460
     4  H    0.340460
 Sum of Mulliken charges =  -0.00000
 Mulliken charges with hydrogens summed into heavy atoms:
               1
     1  N   -0.000000
 Electronic spatial extent (au):  <R**2>=             26.7563
 Charge=             -0.0000 electrons
 Dipole moment (field-independent basis, Debye):
    X=             -0.0000    Y=             -0.0000    Z=             -2.1056  Tot=              2.1056
 Quadrupole moment (field-independent basis, Debye-Ang):
   XX=             -6.0895   YY=             -6.0895   ZZ=             -9.8799
   XY=             -0.0000   XZ=              0.0000   YZ=              0.0000
 Traceless Quadrupole moment (field-independent basis, Debye-Ang):
   XX=              1.2635   YY=              1.2635   ZZ=             -2.5269
   XY=             -0.0000   XZ=              0.0000   YZ=              0.0000
 Octapole moment (field-independent basis, Debye-Ang**2):
  XXX=             -0.0000  YYY=              1.0628  ZZZ=             -2.5735  XYY=              0.0000
  XXY=             -1.0628  XXZ=             -1.2053  XZZ=              0.0000  YZZ=             -0.0000
  YYZ=             -1.2053  XYZ=             -0.0000
 Hexadecapole moment (field-independent basis, Debye-Ang**3):
 XXXX=             -9.8347 YYYY=             -9.8347 ZZZZ=            -14.6283 XXXY=              0.0000
 XXXZ=              0.0000 YYYX=             -0.0000 YYYZ=             -0.3319 ZZZX=             -0.0000
 ZZZY=             -0.0000 XXYY=             -3.2782 XXZZ=             -4.2084 YYZZ=             -4.2084
 XXYZ=              0.3319 YYXZ=             -0.0000 ZZXY=              0.0000
 N-N= 1.208824763449D+01 E-N=-1.559112454106D+02  KE= 5.606428840488D+01
 Symmetry A'   KE= 5.338341022393D+01
 Symmetry A"   KE= 2.680878180958D+00
 No NMR shielding tensors so no spin-rotation constants.
 Leave Link  601 at Fri Sep  1 15:13:43 2023, MaxMem=   104857600 cpu:               0.1 elap:               0.1
 (Enter /usr/local/gaussian/g16c01_gpu/g16/l701.exe)
 ... and contract with generalized density number  0.
 Compute integral first derivatives.
 D1PCM: PCM CHGder 1st derivatives, ID1Alg=3 FixD1E=F DoIter=F DoCFld=F I1PDM=0.
 GePol: Maximum number of non-zero 1st derivatives   =     333
 Leave Link  701 at Fri Sep  1 15:13:43 2023, MaxMem=   104857600 cpu:               0.3 elap:               0.3
 (Enter /usr/local/gaussian/g16c01_gpu/g16/l702.exe)
 L702 exits ... SP integral derivatives will be done elsewhere.
 Leave Link  702 at Fri Sep  1 15:13:43 2023, MaxMem=   104857600 cpu:               0.0 elap:               0.0
 (Enter /usr/local/gaussian/g16c01_gpu/g16/l703.exe)
 Integral derivatives from FoFJK, PRISM(SPDF).
 Compute integral first derivatives, UseDBF=F ICtDFT=           0.
 Calling FoFJK, ICntrl=      2127 FMM=F ISym2X=1 I1Cent= 0 IOpClX= 0 NMat=1 NMatS=1 NMatT=0.
 FoFJK:  IHMeth= 1 ICntrl=    2127 DoSepK=F KAlg= 0 I1Cent=           0 FoldK=F
 IRaf=         0 NMat=       1 IRICut=       1 DoRegI=T DoRafI=F ISym2E= 1 IDoP0=0 IntGTp=1.
 FoFCou: FMM=F IPFlag=           0 FMFlag=      100000 FMFlg1=         800
         NFxFlg=           0 DoJE=F BraDBF=F KetDBF=F FulRan=T
         wScrn=  0.000000 ICntrl=      2127 IOpCl=  0 I1Cent=           0 NGrid=           0
         NMat0=    1 NMatS0=      1 NMatT0=    0 NMatD0=    1 NMtDS0=    0 NMtDT0=    0
 Petite list used in FoFCou.
 Leave Link  703 at Fri Sep  1 15:13:44 2023, MaxMem=   104857600 cpu:               0.3 elap:               0.3
 (Enter /usr/local/gaussian/g16c01_gpu/g16/l716.exe)
 Dipole        =-2.22044605D-16-1.22124533D-15-8.28424511D-01
 ***** Axes restored to original set *****
 -------------------------------------------------------------------
 Center     Atomic                   Forces (Hartrees/Bohr)
 Number     Number              X              Y              Z
 -------------------------------------------------------------------
      1        7          -0.008875206    0.015372308   -0.006217260
      2        1           0.001127219   -0.001952400    0.012399628
      3        1           0.012075425   -0.001974855   -0.003091184
      4        1          -0.004327437   -0.011445052   -0.003091184
 -------------------------------------------------------------------
 Cartesian Forces:  Max     0.015372308 RMS     0.008322196
 Leave Link  716 at Fri Sep  1 15:13:44 2023, MaxMem=   104857600 cpu:               0.0 elap:               0.0
 (Enter /usr/local/gaussian/g16c01_gpu/g16/l103.exe)

 GradGradGradGradGradGradGradGradGradGradGradGradGradGradGradGradGradGrad
 Berny optimization.
 FormGI is forming the generalized inverse of G from B-inverse, IUseBI=4.
 Internal  Forces:  Max     0.012415506 RMS     0.008308187
 Search for a local minimum.
 Step number   1 out of a maximum of   20
 All quantities printed in internal units (Hartrees-Bohrs-Radians)
 RMS Force = .83082D-02 SwitMx=.10000D-02 MixMth= 1
 Mixed Optimization -- RFO/linear search
 Second derivative matrix not updated -- first step.
 The second derivative matrix:
                          R1        R2        R3        A1        A2
           R1           0.47688
           R2           0.00000   0.47688
           R3           0.00000   0.00000   0.47688
           A1           0.00000   0.00000   0.00000   0.16000
           A2           0.00000   0.00000   0.00000   0.00000   0.16000
           A3           0.00000   0.00000   0.00000   0.00000   0.00000
           D1           0.00000   0.00000   0.00000   0.00000   0.00000
                          A3        D1
           A3           0.16000
           D1           0.00000   0.01028
 ITU=  0
     Eigenvalues ---    0.05635   0.16000   0.16000   0.47688   0.47688
     Eigenvalues ---    0.47688
 RFO step:  Lambda=-1.26434731D-03 EMin= 5.63503380D-02
 Linear search not attempted -- first point.
 Iteration  1 RMS(Cart)=  0.01762184 RMS(Int)=  0.00081931
 Iteration  2 RMS(Cart)=  0.00052768 RMS(Int)=  0.00054686
 Iteration  3 RMS(Cart)=  0.00000043 RMS(Int)=  0.00054686
 ITry= 1 IFail=0 DXMaxC= 3.13D-02 DCOld= 1.00D+10 DXMaxT= 3.00D-01 DXLimC= 3.00D+00 Rises=F
 ClnCor:  largest displacement from symmetrization is 1.13D-03 for atom     4.
 Variable       Old X    -DE/DX   Delta X   Delta X   Delta X     New X
                                 (Linear)    (Quad)   (Total)
    R1        1.88973   0.01240   0.00000   0.02593   0.02631   1.91603
    R2        1.88973   0.01242   0.00000   0.02597   0.02631   1.91603
    R3        1.88973   0.01242   0.00000   0.02597   0.02631   1.91603
    A1        1.91063  -0.00031   0.00000  -0.02149  -0.02374   1.88689
    A2        1.91063  -0.00229   0.00000  -0.02394  -0.02374   1.88689
    A3        1.91063  -0.00234   0.00000  -0.02428  -0.02374   1.88689
    D1       -2.09440   0.00322   0.00000   0.05586   0.05562  -2.03877
         Item               Value     Threshold  Converged?
 Maximum Force            0.012416     0.000450     NO 
 RMS     Force            0.008308     0.000300     NO 
 Maximum Displacement     0.030963     0.001800     NO 
 RMS     Displacement     0.017655     0.001200     NO 
 Predicted change in Energy=-6.294766D-04
 Lowest energy point so far.  Saving SCF results.
 GradGradGradGradGradGradGradGradGradGradGradGradGradGradGradGradGradGrad

 Leave Link  103 at Fri Sep  1 15:13:44 2023, MaxMem=   104857600 cpu:               0.0 elap:               0.0
 (Enter /usr/local/gaussian/g16c01_gpu/g16/l202.exe)
                          Input orientation:                          
 ---------------------------------------------------------------------
 Center     Atomic      Atomic             Coordinates (Angstroms)
 Number     Number       Type             X           Y           Z
 ---------------------------------------------------------------------
      1          7           0       -0.009460    0.016385   -0.006689
      2          1           0        0.002291   -0.003968    1.006960
      3          1           0        0.950135   -0.003968   -0.333494
      4          1           0       -0.471631   -0.824825   -0.333494
 ---------------------------------------------------------------------
                    Distance matrix (angstroms):
                    1          2          3          4
     1  N    0.000000
     2  H    1.013922   0.000000
     3  H    1.013922   1.641714   0.000000
     4  H    1.013922   1.641714   1.641714   0.000000
 Stoichiometry    H3N
 Framework group  C3V[C3(N),3SGV(H)]
 Deg. of freedom     2
 Full point group                 C3V     NOp   6
 RotChk:  IX=0 Diff= 3.53D-16
 Largest Abelian subgroup         CS      NOp   2
 Largest concise Abelian subgroup CS      NOp   2
                         Standard orientation:                         
 ---------------------------------------------------------------------
 Center     Atomic      Atomic             Coordinates (Angstroms)
 Number     Number       Type             X           Y           Z
 ---------------------------------------------------------------------
      1          7           0       -0.000000    0.000000    0.108012
      2          1           0        0.000000    0.947844   -0.252028
      3          1           0       -0.820857   -0.473922   -0.252028
      4          1           0        0.820857   -0.473922   -0.252028
 ---------------------------------------------------------------------
 Rotational constants (GHZ):         300.7328609         300.7328609         186.0530941
 Leave Link  202 at Fri Sep  1 15:13:44 2023, MaxMem=   104857600 cpu:               0.0 elap:               0.0
 (Enter /usr/local/gaussian/g16c01_gpu/g16/l301.exe)
 Standard basis: 6-31+G(d,p) (6D, 7F)
 Ernie: Thresh=  0.10000D-02 Tol=  0.10000D-05 Strict=F.
 There are    23 symmetry adapted cartesian basis functions of A'  symmetry.
 There are    11 symmetry adapted cartesian basis functions of A"  symmetry.
 There are    23 symmetry adapted basis functions of A'  symmetry.
 There are    11 symmetry adapted basis functions of A"  symmetry.
    34 basis functions,    53 primitive gaussians,    34 cartesian basis functions
     5 alpha electrons        5 beta electrons
       nuclear repulsion energy        11.9271317878 Hartrees.
 IExCor= 4336 DFT=T Ex+Corr=M062X ExCW=0 ScaHFX=  0.540000
 ScaDFX=  1.000000  1.000000  1.000000  1.000000 ScalE2=  1.000000  1.000000
 IRadAn=      5 IRanWt=     -1 IRanGd=            0 ICorTp=0 IEmpDi=  4
 NAtoms=    4 NActive=    4 NUniq=    2 SFac= 4.00D+00 NAtFMM=   60 NAOKFM=F Big=F
 Integral buffers will be    131072 words long.
 Raffenetti 2 integral format.
 Two-electron integral symmetry is turned on.
 ------------------------------------------------------------------------------
 Polarizable Continuum Model (PCM)
 =================================
 Model                : PCM.
 Atomic radii         : SMD-Coulomb.
 Polarization charges : Total charges.
 Charge compensation  : None.
 Solution method      : On-the-fly selection.
 Cavity type          : VdW (van der Waals Surface) (Alpha=1.000).
 Cavity algorithm     : GePol (No added spheres)
                        Default sphere list used, NSphG=    4.
                        Lebedev-Laikov grids with approx.  5.0 points / Ang**2.
                        Smoothing algorithm: York/Karplus (Gamma=1.0000).
                        Polarization charges: spherical gaussians, with
                                              point-specific exponents (IZeta= 3).
                        Self-potential: point-specific (ISelfS= 7).
                        Self-field    : sphere-specific E.n sum rule (ISelfD= 2).
 1st derivatives      : Analytical E(r).r(x)/FMM algorithm (CHGder, D1EAlg=3).
                        Cavity 1st derivative terms included.
 Solvent              : Water, Eps=  78.355300 Eps(inf)=   1.777849
 ------------------------------------------------------------------------------
 Spheres list:
 ISph  on   Nord     Re0    Alpha      Xe            Ye            Ze
    1   N      1    1.8900  1.000     -0.000000      0.000000      0.108012
    2   H      2    1.2000  1.000      0.000000      0.947844     -0.252028
    3   H      3    1.2000  1.000     -0.820857     -0.473922     -0.252028
    4   H      4    1.2000  1.000      0.820857     -0.473922     -0.252028
 ------------------------------------------------------------------------------
 GePol: Number of generator spheres                  =       4
 GePol: Total number of spheres                      =       4
 GePol: Number of exposed spheres                    =       4 (100.00%)
 GePol: Number of points                             =     384
 GePol: Average weight of points                     =       0.12
 GePol: Minimum weight of points                     =   0.14D-04
 GePol: Maximum weight of points                     =    0.17992
 GePol: Number of points with low weight             =      14
 GePol: Fraction of low-weight points (<1% of avg)   =       3.65%
 GePol: Cavity surface area                          =     47.894 Ang**2
 GePol: Cavity volume                                =     30.374 Ang**3
 ------------------------------------------------------------------------------
 Atomic radii for non-electrostatic terms: SMD-CDS.
 ------------------------------------------------------------------------------
 PCM non-electrostatic energy =         0.0033897030 Hartrees.
 Nuclear repulsion after PCM non-electrostatic terms =       11.9305214908 Hartrees.
 Leave Link  301 at Fri Sep  1 15:13:44 2023, MaxMem=   104857600 cpu:               0.1 elap:               0.1
 (Enter /usr/local/gaussian/g16c01_gpu/g16/l302.exe)
 NPDir=0 NMtPBC=     1 NCelOv=     1 NCel=       1 NClECP=     1 NCelD=      1
         NCelK=      1 NCelE2=     1 NClLst=     1 CellRange=     0.0.
 One-electron integrals computed using PRISM.
 One-electron integral symmetry used in STVInt
 NBasis=    34 RedAO= T EigKep=  1.49D-02  NBF=    23    11
 NBsUse=    34 1.00D-06 EigRej= -1.00D+00 NBFU=    23    11
 Precomputing XC quadrature grid using
 IXCGrd= 4 IRadAn=           5 IRanWt=          -1 IRanGd=           0 AccXCQ= 0.00D+00.
 Generated NRdTot=       0 NPtTot=           0 NUsed=           0 NTot=          32
 NSgBfM=    34    34    34    34    34 MxSgAt=     4 MxSgA2=     4.
 Leave Link  302 at Fri Sep  1 15:13:44 2023, MaxMem=   104857600 cpu:               0.1 elap:               0.1
 (Enter /usr/local/gaussian/g16c01_gpu/g16/l303.exe)
 DipDrv:  MaxL=1.
 Leave Link  303 at Fri Sep  1 15:13:44 2023, MaxMem=   104857600 cpu:               0.0 elap:               0.0
 (Enter /usr/local/gaussian/g16c01_gpu/g16/l401.exe)
 Initial guess from the checkpoint file:  "NH3.chk"
 B after Tr=    -0.000000    0.000000   -0.000000
         Rot=    1.000000   -0.000000   -0.000000    0.000000 Ang=   0.00 deg.
 Guess basis will be translated and rotated to current coordinates.
 JPrj=2 DoOrth=T DoCkMO=T.
 Initial guess orbital symmetries:
       Occupied  (A1) (A1) (E) (E) (A1)
       Virtual   (A1) (E) (E) (A1) (E) (E) (A1) (E) (E) (A1) (E)
                 (E) (A1) (A1) (E) (E) (A1) (A2) (E) (E) (E) (E)
                 (A1) (E) (E) (A1) (E) (E) (A1)
 The electronic state of the initial guess is 1-A1.
 Generating alternative initial guess.
 ExpMin= 6.39D-02 ExpMax= 4.17D+03 ExpMxC= 6.27D+02 IAcc=3 IRadAn=         5 AccDes= 0.00D+00
 Harris functional with IExCor= 1009 and IRadAn=       5 diagonalized for initial guess.
 HarFok:  IExCor= 1009 AccDes= 0.00D+00 IRadAn=         5 IDoV= 1 UseB2=F ITyADJ=14
 ICtDFT=  3500011 ScaDFX=  1.000000  1.000000  1.000000  1.000000
 FoFCou: FMM=F IPFlag=           0 FMFlag=      100000 FMFlg1=           0
         NFxFlg=           0 DoJE=T BraDBF=F KetDBF=T FulRan=T
         wScrn=  0.000000 ICntrl=       500 IOpCl=  0 I1Cent=   200000004 NGrid=           0
         NMat0=    1 NMatS0=      1 NMatT0=    0 NMatD0=    1 NMtDS0=    0 NMtDT0=    0
 Petite list used in FoFCou.
 Harris En= -56.5279612984564    
 Leave Link  401 at Fri Sep  1 15:13:44 2023, MaxMem=   104857600 cpu:               0.2 elap:               0.2
 (Enter /usr/local/gaussian/g16c01_gpu/g16/l502.exe)
 Keep R1 ints in memory in symmetry-blocked form, NReq=1618434.
 FoFCou: FMM=F IPFlag=           0 FMFlag=           0 FMFlg1=           0
         NFxFlg=           0 DoJE=F BraDBF=F KetDBF=F FulRan=T
         wScrn=  0.000000 ICntrl=       600 IOpCl=  0 I1Cent=           0 NGrid=           0
         NMat0=    1 NMatS0=    595 NMatT0=    0 NMatD0=    1 NMtDS0=    0 NMtDT0=    0
 Petite list used in FoFCou.
 Closed shell SCF:
 Using DIIS extrapolation, IDIIS=  1040.
 NGot=   104857600 LenX=   104761960 LenY=   104760363
 Requested convergence on RMS density matrix=1.00D-08 within 128 cycles.
 Requested convergence on MAX density matrix=1.00D-06.
 Requested convergence on             energy=1.00D-06.
 No special actions if energy rises.

 Cycle   1  Pass 1  IDiag  1:
 Inv3:  Mode=1 IEnd=      442368.
 Iteration    1 A*A^-1 deviation from unit magnitude is 2.22D-15 for    373.
 Iteration    1 A*A^-1 deviation from orthogonality  is 1.42D-15 for    184    112.
 Iteration    1 A^-1*A deviation from unit magnitude is 2.44D-15 for    380.
 Iteration    1 A^-1*A deviation from orthogonality  is 9.09D-16 for    380     55.
 E= -56.5357371077986    
 DIIS: error= 2.68D-03 at cycle   1 NSaved=   1.
 NSaved= 1 IEnMin= 1 EnMin= -56.5357371077986     IErMin= 1 ErrMin= 2.68D-03
 ErrMax= 2.68D-03  0.00D+00 EMaxC= 1.00D-01 BMatC= 2.15D-04 BMatP= 2.15D-04
 IDIUse=3 WtCom= 9.73D-01 WtEn= 2.68D-02
 Coeff-Com:  0.100D+01
 Coeff-En:   0.100D+01
 Coeff:      0.100D+01
 Gap=     0.394 Goal=   None    Shift=    0.000
 GapD=    0.394 DampG=1.000 DampE=1.000 DampFc=1.0000 IDamp=-1.
 RMSDP=5.46D-04 MaxDP=5.24D-03              OVMax= 7.11D-03

 Cycle   2  Pass 1  IDiag  1:
 E= -56.5359551149838     Delta-E=       -0.000218007185 Rises=F Damp=F
 DIIS: error= 1.69D-03 at cycle   2 NSaved=   2.
 NSaved= 2 IEnMin= 2 EnMin= -56.5359551149838     IErMin= 2 ErrMin= 1.69D-03
 ErrMax= 1.69D-03  0.00D+00 EMaxC= 1.00D-01 BMatC= 6.79D-05 BMatP= 2.15D-04
 IDIUse=3 WtCom= 9.83D-01 WtEn= 1.69D-02
 Coeff-Com:  0.286D+00 0.714D+00
 Coeff-En:   0.000D+00 0.100D+01
 Coeff:      0.281D+00 0.719D+00
 Gap=     0.398 Goal=   None    Shift=    0.000
 RMSDP=2.18D-04 MaxDP=3.09D-03 DE=-2.18D-04 OVMax= 4.04D-03

 Cycle   3  Pass 1  IDiag  1:
 E= -56.5360008172033     Delta-E=       -0.000045702220 Rises=F Damp=F
 DIIS: error= 5.89D-04 at cycle   3 NSaved=   3.
 NSaved= 3 IEnMin= 3 EnMin= -56.5360008172033     IErMin= 3 ErrMin= 5.89D-04
 ErrMax= 5.89D-04  0.00D+00 EMaxC= 1.00D-01 BMatC= 1.54D-05 BMatP= 6.79D-05
 IDIUse=3 WtCom= 9.94D-01 WtEn= 5.89D-03
 Coeff-Com: -0.736D-01 0.304D+00 0.770D+00
 Coeff-En:   0.000D+00 0.102D+00 0.898D+00
 Coeff:     -0.732D-01 0.302D+00 0.771D+00
 Gap=     0.396 Goal=   None    Shift=    0.000
 RMSDP=8.05D-05 MaxDP=9.56D-04 DE=-4.57D-05 OVMax= 1.24D-03

 Cycle   4  Pass 1  IDiag  1:
 E= -56.5360147649326     Delta-E=       -0.000013947729 Rises=F Damp=F
 DIIS: error= 5.36D-05 at cycle   4 NSaved=   4.
 NSaved= 4 IEnMin= 4 EnMin= -56.5360147649326     IErMin= 4 ErrMin= 5.36D-05
 ErrMax= 5.36D-05  0.00D+00 EMaxC= 1.00D-01 BMatC= 3.41D-08 BMatP= 1.54D-05
 IDIUse=1 WtCom= 1.00D+00 WtEn= 0.00D+00
 Coeff-Com:  0.184D-02-0.348D-01-0.632D-01 0.110D+01
 Coeff:      0.184D-02-0.348D-01-0.632D-01 0.110D+01
 Gap=     0.396 Goal=   None    Shift=    0.000
 RMSDP=1.99D-05 MaxDP=2.41D-04 DE=-1.39D-05 OVMax= 3.74D-04

 Cycle   5  Pass 1  IDiag  1:
 E= -56.5360149228043     Delta-E=       -0.000000157872 Rises=F Damp=F
 DIIS: error= 1.27D-05 at cycle   5 NSaved=   5.
 NSaved= 5 IEnMin= 5 EnMin= -56.5360149228043     IErMin= 5 ErrMin= 1.27D-05
 ErrMax= 1.27D-05  0.00D+00 EMaxC= 1.00D-01 BMatC= 3.62D-09 BMatP= 3.41D-08
 IDIUse=1 WtCom= 1.00D+00 WtEn= 0.00D+00
 Coeff-Com:  0.325D-02-0.176D-01-0.420D-01-0.211D-02 0.106D+01
 Coeff:      0.325D-02-0.176D-01-0.420D-01-0.211D-02 0.106D+01
 Gap=     0.396 Goal=   None    Shift=    0.000
 RMSDP=5.44D-06 MaxDP=6.56D-05 DE=-1.58D-07 OVMax= 1.10D-04

 Cycle   6  Pass 1  IDiag  1:
 E= -56.5360149346281     Delta-E=       -0.000000011824 Rises=F Damp=F
 DIIS: error= 3.13D-06 at cycle   6 NSaved=   6.
 NSaved= 6 IEnMin= 6 EnMin= -56.5360149346281     IErMin= 6 ErrMin= 3.13D-06
 ErrMax= 3.13D-06  0.00D+00 EMaxC= 1.00D-01 BMatC= 2.35D-10 BMatP= 3.62D-09
 IDIUse=1 WtCom= 1.00D+00 WtEn= 0.00D+00
 Coeff-Com: -0.402D-03 0.343D-02 0.793D-02-0.441D-01-0.124D+00 0.116D+01
 Coeff:     -0.402D-03 0.343D-02 0.793D-02-0.441D-01-0.124D+00 0.116D+01
 Gap=     0.396 Goal=   None    Shift=    0.000
 RMSDP=1.35D-06 MaxDP=2.12D-05 DE=-1.18D-08 OVMax= 2.31D-05

 Cycle   7  Pass 1  IDiag  1:
 E= -56.5360149353435     Delta-E=       -0.000000000715 Rises=F Damp=F
 DIIS: error= 3.13D-06 at cycle   7 NSaved=   7.
 NSaved= 7 IEnMin= 7 EnMin= -56.5360149353435     IErMin= 7 ErrMin= 3.13D-06
 ErrMax= 3.13D-06  0.00D+00 EMaxC= 1.00D-01 BMatC= 1.66D-10 BMatP= 2.35D-10
 IDIUse=1 WtCom= 1.00D+00 WtEn= 0.00D+00
 Coeff-Com:  0.270D-04-0.290D-03-0.748D-03 0.587D-02 0.634D-02-0.180D+00
 Coeff-Com:  0.117D+01
 Coeff:      0.270D-04-0.290D-03-0.748D-03 0.587D-02 0.634D-02-0.180D+00
 Coeff:      0.117D+01
 Gap=     0.396 Goal=   None    Shift=    0.000
 RMSDP=1.77D-07 MaxDP=2.70D-06 DE=-7.15D-10 OVMax= 2.30D-06

 Cycle   8  Pass 1  IDiag  1:
 E= -56.5360149353748     Delta-E=       -0.000000000031 Rises=F Damp=F
 DIIS: error= 3.13D-06 at cycle   8 NSaved=   8.
 NSaved= 8 IEnMin= 8 EnMin= -56.5360149353748     IErMin= 8 ErrMin= 3.13D-06
 ErrMax= 3.13D-06  0.00D+00 EMaxC= 1.00D-01 BMatC= 1.65D-10 BMatP= 1.66D-10
 IDIUse=1 WtCom= 1.00D+00 WtEn= 0.00D+00
 Coeff-Com: -0.180D-05 0.268D-04 0.881D-04-0.721D-03-0.785D-03 0.275D-01
 Coeff-Com: -0.226D+00 0.120D+01
 Coeff:     -0.180D-05 0.268D-04 0.881D-04-0.721D-03-0.785D-03 0.275D-01
 Coeff:     -0.226D+00 0.120D+01
 Gap=     0.396 Goal=   None    Shift=    0.000
 RMSDP=8.56D-09 MaxDP=1.04D-07 DE=-3.12D-11 OVMax= 1.37D-07

 Error on total polarization charges =  0.02003
 SCF Done:  E(RM062X) =  -56.5360149354     A.U. after    8 cycles
            NFock=  8  Conv=0.86D-08     -V/T= 2.0095
 KE= 5.600222106775D+01 PE=-1.555630546362D+02 EE= 3.109429714227D+01
 SMD-CDS (non-electrostatic) energy       (kcal/mol) =       2.13
 (included in total energy above)
 Leave Link  502 at Fri Sep  1 15:13:46 2023, MaxMem=   104857600 cpu:               1.7 elap:               1.7
 (Enter /usr/local/gaussian/g16c01_gpu/g16/l701.exe)
 ... and contract with generalized density number  0.
 Compute integral first derivatives.
 D1PCM: PCM CHGder 1st derivatives, ID1Alg=3 FixD1E=F DoIter=F DoCFld=F I1PDM=0.
 GePol: Maximum number of non-zero 1st derivatives   =     331
 Leave Link  701 at Fri Sep  1 15:13:46 2023, MaxMem=   104857600 cpu:               0.3 elap:               0.3
 (Enter /usr/local/gaussian/g16c01_gpu/g16/l702.exe)
 L702 exits ... SP integral derivatives will be done elsewhere.
 Leave Link  702 at Fri Sep  1 15:13:46 2023, MaxMem=   104857600 cpu:               0.0 elap:               0.0
 (Enter /usr/local/gaussian/g16c01_gpu/g16/l703.exe)
 Integral derivatives from FoFJK, PRISM(SPDF).
 Compute integral first derivatives, UseDBF=F ICtDFT=           0.
 Calling FoFJK, ICntrl=      2127 FMM=F ISym2X=1 I1Cent= 0 IOpClX= 0 NMat=1 NMatS=1 NMatT=0.
 FoFJK:  IHMeth= 1 ICntrl=    2127 DoSepK=F KAlg= 0 I1Cent=           0 FoldK=F
 IRaf=         0 NMat=       1 IRICut=       1 DoRegI=T DoRafI=F ISym2E= 1 IDoP0=0 IntGTp=1.
 FoFCou: FMM=F IPFlag=           0 FMFlag=      100000 FMFlg1=         800
         NFxFlg=           0 DoJE=F BraDBF=F KetDBF=F FulRan=T
         wScrn=  0.000000 ICntrl=      2127 IOpCl=  0 I1Cent=           0 NGrid=           0
         NMat0=    1 NMatS0=      1 NMatT0=    0 NMatD0=    1 NMtDS0=    0 NMtDT0=    0
 Petite list used in FoFCou.
 Leave Link  703 at Fri Sep  1 15:13:46 2023, MaxMem=   104857600 cpu:               0.3 elap:               0.3
 (Enter /usr/local/gaussian/g16c01_gpu/g16/l716.exe)
 Dipole        =-4.44089210D-16 0.00000000D+00-8.73065466D-01
 ***** Axes restored to original set *****
 -------------------------------------------------------------------
 Center     Atomic                   Forces (Hartrees/Bohr)
 Number     Number              X              Y              Z
 -------------------------------------------------------------------
      1        7          -0.002459498    0.004259975   -0.001694914
      2        1           0.000778458   -0.001348329    0.000797997
      3        1           0.001011764   -0.001356955    0.000448458
      4        1           0.000669276   -0.001554691    0.000448458
 -------------------------------------------------------------------
 Cartesian Forces:  Max     0.004259975 RMS     0.001738348
 Leave Link  716 at Fri Sep  1 15:13:47 2023, MaxMem=   104857600 cpu:               0.0 elap:               0.0
 (Enter /usr/local/gaussian/g16c01_gpu/g16/l103.exe)

 GradGradGradGradGradGradGradGradGradGradGradGradGradGradGradGradGradGrad
 Berny optimization.
 Using GEDIIS/GDIIS optimizer.
 FormGI is forming the generalized inverse of G from B-inverse, IUseBI=4.
 Internal  Forces:  Max     0.002129125 RMS     0.001331143
 Search for a local minimum.
 Step number   2 out of a maximum of   20
 All quantities printed in internal units (Hartrees-Bohrs-Radians)
 RMS Force = .13311D-02 SwitMx=.10000D-02 MixMth= 1
 Mixed Optimization -- RFO/linear search
 Update second derivatives using D2CorX and points    1    2
 DE= -7.67D-04 DEPred=-6.29D-04 R= 1.22D+00
 TightC=F SS=  1.41D+00  RLast= 8.28D-02 DXNew= 5.0454D-01 2.4849D-01
 Trust test= 1.22D+00 RLast= 8.28D-02 DXMaxT set to 3.00D-01
 The second derivative matrix:
                          R1        R2        R3        A1        A2
           R1           0.48833
           R2           0.01152   0.48848
           R3           0.01152   0.01159   0.48848
           A1           0.03653   0.03653   0.03653   0.14884
           A2           0.02971   0.02970   0.02970  -0.01114   0.14922
           A3           0.02957   0.02957   0.02957  -0.01114  -0.01077
           D1           0.00699   0.00700   0.00700   0.00165   0.00101
                          A3        D1
           A3           0.14924
           D1           0.00099   0.01121
 ITU=  1  0
 Use linear search instead of GDIIS.
     Eigenvalues ---    0.04495   0.15463   0.16000   0.47688   0.47688
     Eigenvalues ---    0.51758
 RFO step:  Lambda=-1.47928381D-04 EMin= 4.49542645D-02
 Quartic linear search produced a step of  0.28338.
 Iteration  1 RMS(Cart)=  0.01575518 RMS(Int)=  0.00078280
 Iteration  2 RMS(Cart)=  0.00039724 RMS(Int)=  0.00065982
 Iteration  3 RMS(Cart)=  0.00000006 RMS(Int)=  0.00065982
 ITry= 1 IFail=0 DXMaxC= 2.66D-02 DCOld= 1.00D+10 DXMaxT= 3.00D-01 DXLimC= 3.00D+00 Rises=F
 ClnCor:  largest displacement from symmetrization is 3.45D-04 for atom     4.
 Variable       Old X    -DE/DX   Delta X   Delta X   Delta X     New X
                                 (Linear)    (Quad)   (Total)
    R1        1.91603   0.00083   0.00746  -0.00198   0.00560   1.92164
    R2        1.91603   0.00084   0.00746  -0.00197   0.00560   1.92164
    R3        1.91603   0.00084   0.00746  -0.00197   0.00560   1.92164
    A1        1.88689  -0.00029  -0.00673  -0.01643  -0.02466   1.86223
    A2        1.88689  -0.00166  -0.00673  -0.01754  -0.02466   1.86223
    A3        1.88689  -0.00171  -0.00673  -0.01780  -0.02466   1.86223
    D1       -2.03877   0.00213   0.01576   0.03816   0.05300  -1.98578
         Item               Value     Threshold  Converged?
 Maximum Force            0.002129     0.000450     NO 
 RMS     Force            0.001331     0.000300     NO 
 Maximum Displacement     0.026471     0.001800     NO 
 RMS     Displacement     0.015854     0.001200     NO 
 Predicted change in Energy=-9.960850D-05
 Lowest energy point so far.  Saving SCF results.
 GradGradGradGradGradGradGradGradGradGradGradGradGradGradGradGradGradGrad

 Leave Link  103 at Fri Sep  1 15:13:47 2023, MaxMem=   104857600 cpu:               0.0 elap:               0.0
 (Enter /usr/local/gaussian/g16c01_gpu/g16/l202.exe)
                          Input orientation:                          
 ---------------------------------------------------------------------
 Center     Atomic      Atomic             Coordinates (Angstroms)
 Number     Number       Type             X           Y           Z
 ---------------------------------------------------------------------
      1          7           0       -0.017547    0.030393   -0.012408
      2          1           0        0.005944   -0.010296    1.003393
      3          1           0        0.947990   -0.010296   -0.328860
      4          1           0       -0.465078   -0.826131   -0.328860
 ---------------------------------------------------------------------
                    Distance matrix (angstroms):
                    1          2          3          4
     1  N    0.000000
     2  H    1.016887   0.000000
     3  H    1.016887   1.631670   0.000000
     4  H    1.016887   1.631670   1.631670   0.000000
 Stoichiometry    H3N
 Framework group  C3V[C3(N),3SGV(H)]
 Deg. of freedom     2
 Full point group                 C3V     NOp   6
 RotChk:  IX=0 Diff= 5.59D-16
 Largest Abelian subgroup         CS      NOp   2
 Largest concise Abelian subgroup CS      NOp   2
                         Standard orientation:                         
 ---------------------------------------------------------------------
 Center     Atomic      Atomic             Coordinates (Angstroms)
 Number     Number       Type             X           Y           Z
 ---------------------------------------------------------------------
      1          7           0       -0.000000    0.000000    0.114869
      2          1           0        0.000000    0.942045   -0.268028
      3          1           0       -0.815835   -0.471023   -0.268028
      4          1           0        0.815835   -0.471023   -0.268028
 ---------------------------------------------------------------------
 Rotational constants (GHZ):         296.2105005         296.2105005         188.3506852
 Leave Link  202 at Fri Sep  1 15:13:47 2023, MaxMem=   104857600 cpu:               0.0 elap:               0.0
 (Enter /usr/local/gaussian/g16c01_gpu/g16/l301.exe)
 Standard basis: 6-31+G(d,p) (6D, 7F)
 Ernie: Thresh=  0.10000D-02 Tol=  0.10000D-05 Strict=F.
 There are    23 symmetry adapted cartesian basis functions of A'  symmetry.
 There are    11 symmetry adapted cartesian basis functions of A"  symmetry.
 There are    23 symmetry adapted basis functions of A'  symmetry.
 There are    11 symmetry adapted basis functions of A"  symmetry.
    34 basis functions,    53 primitive gaussians,    34 cartesian basis functions
     5 alpha electrons        5 beta electrons
       nuclear repulsion energy        11.9011258776 Hartrees.
 IExCor= 4336 DFT=T Ex+Corr=M062X ExCW=0 ScaHFX=  0.540000
 ScaDFX=  1.000000  1.000000  1.000000  1.000000 ScalE2=  1.000000  1.000000
 IRadAn=      5 IRanWt=     -1 IRanGd=            0 ICorTp=0 IEmpDi=  4
 NAtoms=    4 NActive=    4 NUniq=    2 SFac= 4.00D+00 NAtFMM=   60 NAOKFM=F Big=F
 Integral buffers will be    131072 words long.
 Raffenetti 2 integral format.
 Two-electron integral symmetry is turned on.
 ------------------------------------------------------------------------------
 Polarizable Continuum Model (PCM)
 =================================
 Model                : PCM.
 Atomic radii         : SMD-Coulomb.
 Polarization charges : Total charges.
 Charge compensation  : None.
 Solution method      : On-the-fly selection.
 Cavity type          : VdW (van der Waals Surface) (Alpha=1.000).
 Cavity algorithm     : GePol (No added spheres)
                        Default sphere list used, NSphG=    4.
                        Lebedev-Laikov grids with approx.  5.0 points / Ang**2.
                        Smoothing algorithm: York/Karplus (Gamma=1.0000).
                        Polarization charges: spherical gaussians, with
                                              point-specific exponents (IZeta= 3).
                        Self-potential: point-specific (ISelfS= 7).
                        Self-field    : sphere-specific E.n sum rule (ISelfD= 2).
 1st derivatives      : Analytical E(r).r(x)/FMM algorithm (CHGder, D1EAlg=3).
                        Cavity 1st derivative terms included.
 Solvent              : Water, Eps=  78.355300 Eps(inf)=   1.777849
 ------------------------------------------------------------------------------
 Spheres list:
 ISph  on   Nord     Re0    Alpha      Xe            Ye            Ze
    1   N      1    1.8900  1.000     -0.000000      0.000000      0.114869
    2   H      2    1.2000  1.000      0.000000      0.942045     -0.268028
    3   H      3    1.2000  1.000     -0.815835     -0.471023     -0.268028
    4   H      4    1.2000  1.000      0.815835     -0.471023     -0.268028
 ------------------------------------------------------------------------------
 GePol: Number of generator spheres                  =       4
 GePol: Total number of spheres                      =       4
 GePol: Number of exposed spheres                    =       4 (100.00%)
 GePol: Number of points                             =     382
 GePol: Average weight of points                     =       0.13
 GePol: Minimum weight of points                     =   0.37D-04
 GePol: Maximum weight of points                     =    0.17992
 GePol: Number of points with low weight             =       8
 GePol: Fraction of low-weight points (<1% of avg)   =       2.09%
 GePol: Cavity surface area                          =     47.997 Ang**2
 GePol: Cavity volume                                =     30.439 Ang**3
 ------------------------------------------------------------------------------
 Atomic radii for non-electrostatic terms: SMD-CDS.
 ------------------------------------------------------------------------------
 PCM non-electrostatic energy =         0.0033833186 Hartrees.
 Nuclear repulsion after PCM non-electrostatic terms =       11.9045091962 Hartrees.
 Leave Link  301 at Fri Sep  1 15:13:47 2023, MaxMem=   104857600 cpu:               0.1 elap:               0.1
 (Enter /usr/local/gaussian/g16c01_gpu/g16/l302.exe)
 NPDir=0 NMtPBC=     1 NCelOv=     1 NCel=       1 NClECP=     1 NCelD=      1
         NCelK=      1 NCelE2=     1 NClLst=     1 CellRange=     0.0.
 One-electron integrals computed using PRISM.
 One-electron integral symmetry used in STVInt
 NBasis=    34 RedAO= T EigKep=  1.43D-02  NBF=    23    11
 NBsUse=    34 1.00D-06 EigRej= -1.00D+00 NBFU=    23    11
 Precomputing XC quadrature grid using
 IXCGrd= 4 IRadAn=           5 IRanWt=          -1 IRanGd=           0 AccXCQ= 0.00D+00.
 Generated NRdTot=       0 NPtTot=           0 NUsed=           0 NTot=          32
 NSgBfM=    34    34    34    34    34 MxSgAt=     4 MxSgA2=     4.
 Leave Link  302 at Fri Sep  1 15:13:47 2023, MaxMem=   104857600 cpu:               0.1 elap:               0.1
 (Enter /usr/local/gaussian/g16c01_gpu/g16/l303.exe)
 DipDrv:  MaxL=1.
 Leave Link  303 at Fri Sep  1 15:13:47 2023, MaxMem=   104857600 cpu:               0.0 elap:               0.0
 (Enter /usr/local/gaussian/g16c01_gpu/g16/l401.exe)
 Initial guess from the checkpoint file:  "NH3.chk"
 B after Tr=    -0.000000   -0.000000    0.000000
         Rot=    1.000000    0.000000    0.000000    0.000000 Ang=   0.00 deg.
 Guess basis will be translated and rotated to current coordinates.
 JPrj=2 DoOrth=T DoCkMO=T.
 Initial guess orbital symmetries:
       Occupied  (A1) (A1) (E) (E) (A1)
       Virtual   (A1) (E) (E) (A1) (E) (E) (A1) (E) (E) (A1) (E)
                 (E) (A1) (A1) (E) (E) (A1) (A2) (E) (E) (E) (E)
                 (A1) (E) (E) (A1) (E) (E) (A1)
 The electronic state of the initial guess is 1-A1.
 Generating alternative initial guess.
 ExpMin= 6.39D-02 ExpMax= 4.17D+03 ExpMxC= 6.27D+02 IAcc=3 IRadAn=         5 AccDes= 0.00D+00
 Harris functional with IExCor= 1009 and IRadAn=       5 diagonalized for initial guess.
 HarFok:  IExCor= 1009 AccDes= 0.00D+00 IRadAn=         5 IDoV= 1 UseB2=F ITyADJ=14
 ICtDFT=  3500011 ScaDFX=  1.000000  1.000000  1.000000  1.000000
 FoFCou: FMM=F IPFlag=           0 FMFlag=      100000 FMFlg1=           0
         NFxFlg=           0 DoJE=T BraDBF=F KetDBF=T FulRan=T
         wScrn=  0.000000 ICntrl=       500 IOpCl=  0 I1Cent=   200000004 NGrid=           0
         NMat0=    1 NMatS0=      1 NMatT0=    0 NMatD0=    1 NMtDS0=    0 NMtDT0=    0
 Petite list used in FoFCou.
 Harris En= -56.5272694274436    
 Leave Link  401 at Fri Sep  1 15:13:47 2023, MaxMem=   104857600 cpu:               0.2 elap:               0.2
 (Enter /usr/local/gaussian/g16c01_gpu/g16/l502.exe)
 Keep R1 ints in memory in symmetry-blocked form, NReq=1618292.
 FoFCou: FMM=F IPFlag=           0 FMFlag=           0 FMFlg1=           0
         NFxFlg=           0 DoJE=F BraDBF=F KetDBF=F FulRan=T
         wScrn=  0.000000 ICntrl=       600 IOpCl=  0 I1Cent=           0 NGrid=           0
         NMat0=    1 NMatS0=    595 NMatT0=    0 NMatD0=    1 NMtDS0=    0 NMtDT0=    0
 Petite list used in FoFCou.
 Closed shell SCF:
 Using DIIS extrapolation, IDIIS=  1040.
 NGot=   104857600 LenX=   104761960 LenY=   104760363
 Requested convergence on RMS density matrix=1.00D-08 within 128 cycles.
 Requested convergence on MAX density matrix=1.00D-06.
 Requested convergence on             energy=1.00D-06.
 No special actions if energy rises.

 Cycle   1  Pass 1  IDiag  1:
 Inv3:  Mode=1 IEnd=      437772.
 Iteration    1 A*A^-1 deviation from unit magnitude is 2.00D-15 for    362.
 Iteration    1 A*A^-1 deviation from orthogonality  is 9.86D-16 for    182     24.
 Iteration    1 A^-1*A deviation from unit magnitude is 2.22D-15 for    362.
 Iteration    1 A^-1*A deviation from orthogonality  is 8.17D-16 for    373    268.
 E= -56.5360056142048    
 DIIS: error= 2.28D-03 at cycle   1 NSaved=   1.
 NSaved= 1 IEnMin= 1 EnMin= -56.5360056142048     IErMin= 1 ErrMin= 2.28D-03
 ErrMax= 2.28D-03  0.00D+00 EMaxC= 1.00D-01 BMatC= 9.76D-05 BMatP= 9.76D-05
 IDIUse=3 WtCom= 9.77D-01 WtEn= 2.28D-02
 Coeff-Com:  0.100D+01
 Coeff-En:   0.100D+01
 Coeff:      0.100D+01
 Gap=     0.398 Goal=   None    Shift=    0.000
 GapD=    0.398 DampG=1.000 DampE=1.000 DampFc=1.0000 IDamp=-1.
 RMSDP=3.50D-04 MaxDP=3.57D-03              OVMax= 4.94D-03

 Cycle   2  Pass 1  IDiag  1:
 E= -56.5361190329137     Delta-E=       -0.000113418709 Rises=F Damp=F
 DIIS: error= 5.73D-04 at cycle   2 NSaved=   2.
 NSaved= 2 IEnMin= 2 EnMin= -56.5361190329137     IErMin= 2 ErrMin= 5.73D-04
 ErrMax= 5.73D-04  0.00D+00 EMaxC= 1.00D-01 BMatC= 6.73D-06 BMatP= 9.76D-05
 IDIUse=3 WtCom= 9.94D-01 WtEn= 5.73D-03
 Coeff-Com: -0.157D-01 0.102D+01
 Coeff-En:   0.000D+00 0.100D+01
 Coeff:     -0.156D-01 0.102D+01
 Gap=     0.400 Goal=   None    Shift=    0.000
 RMSDP=1.24D-04 MaxDP=1.15D-03 DE=-1.13D-04 OVMax= 2.11D-03

 Cycle   3  Pass 1  IDiag  1:
 E= -56.5361220137594     Delta-E=       -0.000002980846 Rises=F Damp=F
 DIIS: error= 3.88D-04 at cycle   3 NSaved=   3.
 NSaved= 3 IEnMin= 3 EnMin= -56.5361220137594     IErMin= 3 ErrMin= 3.88D-04
 ErrMax= 3.88D-04  0.00D+00 EMaxC= 1.00D-01 BMatC= 5.80D-06 BMatP= 6.73D-06
 IDIUse=3 WtCom= 9.96D-01 WtEn= 3.88D-03
 Coeff-Com: -0.778D-01 0.523D+00 0.555D+00
 Coeff-En:   0.000D+00 0.316D+00 0.684D+00
 Coeff:     -0.775D-01 0.522D+00 0.556D+00
 Gap=     0.399 Goal=   None    Shift=    0.000
 RMSDP=4.22D-05 MaxDP=6.18D-04 DE=-2.98D-06 OVMax= 6.74D-04

 Cycle   4  Pass 1  IDiag  1:
 E= -56.5361268843014     Delta-E=       -0.000004870542 Rises=F Damp=F
 DIIS: error= 2.80D-05 at cycle   4 NSaved=   4.
 NSaved= 4 IEnMin= 4 EnMin= -56.5361268843014     IErMin= 4 ErrMin= 2.80D-05
 ErrMax= 2.80D-05  0.00D+00 EMaxC= 1.00D-01 BMatC= 1.54D-08 BMatP= 5.80D-06
 IDIUse=1 WtCom= 1.00D+00 WtEn= 0.00D+00
 Coeff-Com:  0.940D-02-0.105D+00-0.827D-01 0.118D+01
 Coeff:      0.940D-02-0.105D+00-0.827D-01 0.118D+01
 Gap=     0.399 Goal=   None    Shift=    0.000
 RMSDP=1.19D-05 MaxDP=1.35D-04 DE=-4.87D-06 OVMax= 2.04D-04

 Cycle   5  Pass 1  IDiag  1:
 E= -56.5361269333106     Delta-E=       -0.000000049009 Rises=F Damp=F
 DIIS: error= 5.26D-06 at cycle   5 NSaved=   5.
 NSaved= 5 IEnMin= 5 EnMin= -56.5361269333106     IErMin= 5 ErrMin= 5.26D-06
 ErrMax= 5.26D-06  0.00D+00 EMaxC= 1.00D-01 BMatC= 5.74D-10 BMatP= 1.54D-08
 IDIUse=1 WtCom= 1.00D+00 WtEn= 0.00D+00
 Coeff-Com:  0.195D-02-0.108D-01-0.114D-01-0.211D-01 0.104D+01
 Coeff:      0.195D-02-0.108D-01-0.114D-01-0.211D-01 0.104D+01
 Gap=     0.399 Goal=   None    Shift=    0.000
 RMSDP=2.13D-06 MaxDP=2.64D-05 DE=-4.90D-08 OVMax= 4.28D-05

 Cycle   6  Pass 1  IDiag  1:
 E= -56.5361269362887     Delta-E=       -0.000000002978 Rises=F Damp=F
 DIIS: error= 3.48D-06 at cycle   6 NSaved=   6.
 NSaved= 6 IEnMin= 6 EnMin= -56.5361269362887     IErMin= 6 ErrMin= 3.48D-06
 ErrMax= 3.48D-06  0.00D+00 EMaxC= 1.00D-01 BMatC= 2.20D-10 BMatP= 5.74D-10
 IDIUse=1 WtCom= 1.00D+00 WtEn= 0.00D+00
 Coeff-Com: -0.718D-03 0.650D-02 0.537D-02-0.735D-01-0.657D-01 0.113D+01
 Coeff:     -0.718D-03 0.650D-02 0.537D-02-0.735D-01-0.657D-01 0.113D+01
 Gap=     0.399 Goal=   None    Shift=    0.000
 RMSDP=7.60D-07 MaxDP=1.17D-05 DE=-2.98D-09 OVMax= 1.36D-05

 Cycle   7  Pass 1  IDiag  1:
 E= -56.5361269366020     Delta-E=       -0.000000000313 Rises=F Damp=F
 DIIS: error= 3.48D-06 at cycle   7 NSaved=   7.
 NSaved= 7 IEnMin= 7 EnMin= -56.5361269366020     IErMin= 7 ErrMin= 3.48D-06
 ErrMax= 3.48D-06  0.00D+00 EMaxC= 1.00D-01 BMatC= 1.88D-10 BMatP= 2.20D-10
 IDIUse=1 WtCom= 1.00D+00 WtEn= 0.00D+00
 Coeff-Com:  0.761D-04-0.733D-03-0.611D-03 0.106D-01-0.536D-02-0.164D+00
 Coeff-Com:  0.116D+01
 Coeff:      0.761D-04-0.733D-03-0.611D-03 0.106D-01-0.536D-02-0.164D+00
 Coeff:      0.116D+01
 Gap=     0.399 Goal=   None    Shift=    0.000
 RMSDP=9.05D-08 MaxDP=1.36D-06 DE=-3.13D-10 OVMax= 1.12D-06

 Cycle   8  Pass 1  IDiag  1:
 E= -56.5361269366443     Delta-E=       -0.000000000042 Rises=F Damp=F
 DIIS: error= 3.48D-06 at cycle   8 NSaved=   8.
 NSaved= 8 IEnMin= 8 EnMin= -56.5361269366443     IErMin= 8 ErrMin= 3.48D-06
 ErrMax= 3.48D-06  0.00D+00 EMaxC= 1.00D-01 BMatC= 1.88D-10 BMatP= 1.88D-10
 IDIUse=1 WtCom= 1.00D+00 WtEn= 0.00D+00
 Coeff-Com: -0.662D-05 0.702D-04 0.579D-04-0.128D-02 0.239D-02 0.165D-01
 Coeff-Com: -0.195D+00 0.118D+01
 Coeff:     -0.662D-05 0.702D-04 0.579D-04-0.128D-02 0.239D-02 0.165D-01
 Coeff:     -0.195D+00 0.118D+01
 Gap=     0.399 Goal=   None    Shift=    0.000
 RMSDP=3.72D-09 MaxDP=3.82D-08 DE=-4.23D-11 OVMax= 7.04D-08

 Error on total polarization charges =  0.01990
 SCF Done:  E(RM062X) =  -56.5361269366     A.U. after    8 cycles
            NFock=  8  Conv=0.37D-08     -V/T= 2.0096
 KE= 5.599616984167D+01 PE=-1.555061639957D+02 EE= 3.106935802116D+01
 SMD-CDS (non-electrostatic) energy       (kcal/mol) =       2.12
 (included in total energy above)
 Leave Link  502 at Fri Sep  1 15:13:49 2023, MaxMem=   104857600 cpu:               1.7 elap:               1.7
 (Enter /usr/local/gaussian/g16c01_gpu/g16/l701.exe)
 ... and contract with generalized density number  0.
 Compute integral first derivatives.
 D1PCM: PCM CHGder 1st derivatives, ID1Alg=3 FixD1E=F DoIter=F DoCFld=F I1PDM=0.
 GePol: Maximum number of non-zero 1st derivatives   =     325
 Leave Link  701 at Fri Sep  1 15:13:49 2023, MaxMem=   104857600 cpu:               0.3 elap:               0.3
 (Enter /usr/local/gaussian/g16c01_gpu/g16/l702.exe)
 L702 exits ... SP integral derivatives will be done elsewhere.
 Leave Link  702 at Fri Sep  1 15:13:49 2023, MaxMem=   104857600 cpu:               0.0 elap:               0.0
 (Enter /usr/local/gaussian/g16c01_gpu/g16/l703.exe)
 Integral derivatives from FoFJK, PRISM(SPDF).
 Compute integral first derivatives, UseDBF=F ICtDFT=           0.
 Calling FoFJK, ICntrl=      2127 FMM=F ISym2X=1 I1Cent= 0 IOpClX= 0 NMat=1 NMatS=1 NMatT=0.
 FoFJK:  IHMeth= 1 ICntrl=    2127 DoSepK=F KAlg= 0 I1Cent=           0 FoldK=F
 IRaf=         0 NMat=       1 IRICut=       1 DoRegI=T DoRafI=F ISym2E= 1 IDoP0=0 IntGTp=1.
 FoFCou: FMM=F IPFlag=           0 FMFlag=      100000 FMFlg1=         800
         NFxFlg=           0 DoJE=F BraDBF=F KetDBF=F FulRan=T
         wScrn=  0.000000 ICntrl=      2127 IOpCl=  0 I1Cent=           0 NGrid=           0
         NMat0=    1 NMatS0=      1 NMatT0=    0 NMatD0=    1 NMtDS0=    0 NMtDT0=    0
 Petite list used in FoFCou.
 Leave Link  703 at Fri Sep  1 15:13:49 2023, MaxMem=   104857600 cpu:               0.3 elap:               0.3
 (Enter /usr/local/gaussian/g16c01_gpu/g16/l716.exe)
 Dipole        =-4.44089210D-16-8.88178420D-16-9.14640571D-01
 ***** Axes restored to original set *****
 -------------------------------------------------------------------
 Center     Atomic                   Forces (Hartrees/Bohr)
 Number     Number              X              Y              Z
 -------------------------------------------------------------------
      1        7           0.000140532   -0.000243408    0.000144257
      2        1           0.000035236   -0.000061031   -0.000512639
      3        1          -0.000465522   -0.000065810    0.000184191
      4        1           0.000289754    0.000370249    0.000184191
 -------------------------------------------------------------------
 Cartesian Forces:  Max     0.000512639 RMS     0.000270417
 Leave Link  716 at Fri Sep  1 15:13:49 2023, MaxMem=   104857600 cpu:               0.0 elap:               0.0
 (Enter /usr/local/gaussian/g16c01_gpu/g16/l103.exe)

 GradGradGradGradGradGradGradGradGradGradGradGradGradGradGradGradGradGrad
 Berny optimization.
 Using GEDIIS/GDIIS optimizer.
 FormGI is forming the generalized inverse of G from B-inverse, IUseBI=4.
 Internal  Forces:  Max     0.000511806 RMS     0.000336395
 Search for a local minimum.
 Step number   3 out of a maximum of   20
 All quantities printed in internal units (Hartrees-Bohrs-Radians)
 RMS Force = .33639D-03 SwitMx=.10000D-02 MixMth= 2
 Mixed Optimization -- En-DIIS/RFO-DIIS
 Update second derivatives using D2CorX and points    1    2    3
 DE= -1.12D-04 DEPred=-9.96D-05 R= 1.12D+00
 TightC=F SS=  1.41D+00  RLast= 6.88D-02 DXNew= 5.0454D-01 2.0627D-01
 Trust test= 1.12D+00 RLast= 6.88D-02 DXMaxT set to 3.00D-01
 The second derivative matrix:
                          R1        R2        R3        A1        A2
           R1           0.50036
           R2           0.02345   0.50031
           R3           0.02345   0.02343   0.50031
           A1           0.05650   0.05651   0.05651   0.13142
           A2           0.03502   0.03507   0.03507  -0.03142   0.13465
           A3           0.03482   0.03488   0.03488  -0.03146  -0.02533
           D1           0.02627   0.02621   0.02621   0.00883  -0.00449
                          A3        D1
           A3           0.13468
           D1          -0.00457   0.02952
 ITU=  1  1  0
 Use linear search instead of GDIIS.
     Eigenvalues ---    0.04152   0.15315   0.16000   0.47688   0.47688
     Eigenvalues ---    0.55211
 RFO step:  Lambda=-1.57038381D-06 EMin= 4.15248302D-02
 Quartic linear search produced a step of  0.01641.
 Iteration  1 RMS(Cart)=  0.00093447 RMS(Int)=  0.00000880
 Iteration  2 RMS(Cart)=  0.00000039 RMS(Int)=  0.00000878
 ITry= 1 IFail=0 DXMaxC= 1.11D-03 DCOld= 1.00D+10 DXMaxT= 3.00D-01 DXLimC= 3.00D+00 Rises=F
 ClnCor:  largest displacement from symmetrization is 1.75D-04 for atom     4.
 Variable       Old X    -DE/DX   Delta X   Delta X   Delta X     New X
                                 (Linear)    (Quad)   (Total)
    R1        1.92164  -0.00051   0.00009  -0.00092  -0.00074   1.92089
    R2        1.92164  -0.00050   0.00009  -0.00089  -0.00074   1.92089
    R3        1.92164  -0.00050   0.00009  -0.00089  -0.00074   1.92089
    A1        1.86223  -0.00001  -0.00040  -0.00031  -0.00083   1.86141
    A2        1.86223  -0.00009  -0.00040  -0.00039  -0.00083   1.86141
    A3        1.86223  -0.00013  -0.00040  -0.00062  -0.00083   1.86141
    D1       -1.98578   0.00012   0.00087   0.00082   0.00170  -1.98408
         Item               Value     Threshold  Converged?
 Maximum Force            0.000512     0.000450     NO 
 RMS     Force            0.000336     0.000300     NO 
 Maximum Displacement     0.001083     0.001800     YES
 RMS     Displacement     0.000881     0.001200     YES
 Predicted change in Energy=-8.060888D-07
 Lowest energy point so far.  Saving SCF results.
 GradGradGradGradGradGradGradGradGradGradGradGradGradGradGradGradGradGrad

 Leave Link  103 at Fri Sep  1 15:13:49 2023, MaxMem=   104857600 cpu:               0.0 elap:               0.0
 (Enter /usr/local/gaussian/g16c01_gpu/g16/l202.exe)
                          Input orientation:                          
 ---------------------------------------------------------------------
 Center     Atomic      Atomic             Coordinates (Angstroms)
 Number     Number       Type             X           Y           Z
 ---------------------------------------------------------------------
      1          7           0       -0.017751    0.030746   -0.012552
      2          1           0        0.006115   -0.010591    1.002820
      3          1           0        0.947506   -0.010591   -0.328508
      4          1           0       -0.464581   -0.825860   -0.328508
 ---------------------------------------------------------------------
                    Distance matrix (angstroms):
                    1          2          3          4
     1  N    0.000000
     2  H    1.016493   0.000000
     3  H    1.016493   1.630537   0.000000
     4  H    1.016493   1.630537   1.630537   0.000000
 Stoichiometry    H3N
 Framework group  C3V[C3(N),3SGV(H)]
 Deg. of freedom     2
 Full point group                 C3V     NOp   6
 RotChk:  IX=0 Diff= 1.80D-15
 Largest Abelian subgroup         CS      NOp   2
 Largest concise Abelian subgroup CS      NOp   2
                         Standard orientation:                         
 ---------------------------------------------------------------------
 Center     Atomic      Atomic             Coordinates (Angstroms)
 Number     Number       Type             X           Y           Z
 ---------------------------------------------------------------------
      1          7           0       -0.000000    0.000000    0.115038
      2          1           0        0.000000    0.941391   -0.268422
      3          1           0       -0.815269   -0.470696   -0.268422
      4          1           0        0.815269   -0.470696   -0.268422
 ---------------------------------------------------------------------
 Rotational constants (GHZ):         296.3477330         296.3477330         188.6125497
 Leave Link  202 at Fri Sep  1 15:13:50 2023, MaxMem=   104857600 cpu:               0.0 elap:               0.0
 (Enter /usr/local/gaussian/g16c01_gpu/g16/l301.exe)
 Standard basis: 6-31+G(d,p) (6D, 7F)
 Ernie: Thresh=  0.10000D-02 Tol=  0.10000D-05 Strict=F.
 There are    23 symmetry adapted cartesian basis functions of A'  symmetry.
 There are    11 symmetry adapted cartesian basis functions of A"  symmetry.
 There are    23 symmetry adapted basis functions of A'  symmetry.
 There are    11 symmetry adapted basis functions of A"  symmetry.
    34 basis functions,    53 primitive gaussians,    34 cartesian basis functions
     5 alpha electrons        5 beta electrons
       nuclear repulsion energy        11.9060358498 Hartrees.
 IExCor= 4336 DFT=T Ex+Corr=M062X ExCW=0 ScaHFX=  0.540000
 ScaDFX=  1.000000  1.000000  1.000000  1.000000 ScalE2=  1.000000  1.000000
 IRadAn=      5 IRanWt=     -1 IRanGd=            0 ICorTp=0 IEmpDi=  4
 NAtoms=    4 NActive=    4 NUniq=    2 SFac= 4.00D+00 NAtFMM=   60 NAOKFM=F Big=F
 Integral buffers will be    131072 words long.
 Raffenetti 2 integral format.
 Two-electron integral symmetry is turned on.
 ------------------------------------------------------------------------------
 Polarizable Continuum Model (PCM)
 =================================
 Model                : PCM.
 Atomic radii         : SMD-Coulomb.
 Polarization charges : Total charges.
 Charge compensation  : None.
 Solution method      : On-the-fly selection.
 Cavity type          : VdW (van der Waals Surface) (Alpha=1.000).
 Cavity algorithm     : GePol (No added spheres)
                        Default sphere list used, NSphG=    4.
                        Lebedev-Laikov grids with approx.  5.0 points / Ang**2.
                        Smoothing algorithm: York/Karplus (Gamma=1.0000).
                        Polarization charges: spherical gaussians, with
                                              point-specific exponents (IZeta= 3).
                        Self-potential: point-specific (ISelfS= 7).
                        Self-field    : sphere-specific E.n sum rule (ISelfD= 2).
 1st derivatives      : Analytical E(r).r(x)/FMM algorithm (CHGder, D1EAlg=3).
                        Cavity 1st derivative terms included.
 Solvent              : Water, Eps=  78.355300 Eps(inf)=   1.777849
 ------------------------------------------------------------------------------
 Spheres list:
 ISph  on   Nord     Re0    Alpha      Xe            Ye            Ze
    1   N      1    1.8900  1.000     -0.000000     -0.000000      0.115038
    2   H      2    1.2000  1.000      0.000000      0.941391     -0.268422
    3   H      3    1.2000  1.000     -0.815269     -0.470696     -0.268422
    4   H      4    1.2000  1.000      0.815269     -0.470696     -0.268422
 ------------------------------------------------------------------------------
 GePol: Number of generator spheres                  =       4
 GePol: Total number of spheres                      =       4
 GePol: Number of exposed spheres                    =       4 (100.00%)
 GePol: Number of points                             =     382
 GePol: Average weight of points                     =       0.13
 GePol: Minimum weight of points                     =   0.43D-04
 GePol: Maximum weight of points                     =    0.17992
 GePol: Number of points with low weight             =       8
 GePol: Fraction of low-weight points (<1% of avg)   =       2.09%
 GePol: Cavity surface area                          =     47.992 Ang**2
 GePol: Cavity volume                                =     30.435 Ang**3
 ------------------------------------------------------------------------------
 Atomic radii for non-electrostatic terms: SMD-CDS.
 ------------------------------------------------------------------------------
 PCM non-electrostatic energy =         0.0033817890 Hartrees.
 Nuclear repulsion after PCM non-electrostatic terms =       11.9094176387 Hartrees.
 Leave Link  301 at Fri Sep  1 15:13:50 2023, MaxMem=   104857600 cpu:               0.1 elap:               0.1
 (Enter /usr/local/gaussian/g16c01_gpu/g16/l302.exe)
 NPDir=0 NMtPBC=     1 NCelOv=     1 NCel=       1 NClECP=     1 NCelD=      1
         NCelK=      1 NCelE2=     1 NClLst=     1 CellRange=     0.0.
 One-electron integrals computed using PRISM.
 One-electron integral symmetry used in STVInt
 NBasis=    34 RedAO= T EigKep=  1.42D-02  NBF=    23    11
 NBsUse=    34 1.00D-06 EigRej= -1.00D+00 NBFU=    23    11
 Precomputing XC quadrature grid using
 IXCGrd= 4 IRadAn=           5 IRanWt=          -1 IRanGd=           0 AccXCQ= 0.00D+00.
[...]
 and normal coordinates:
                      1                      2                      3
                     A1                      E                      E
 Frequencies --   1071.5705              1625.1892              1625.7405
 Red. masses --      1.1786                 1.0652                 1.0651
 Frc consts  --      0.7974                 1.6576                 1.6586
 IR Inten    --    321.5545                46.1507                46.0914
  Atom  AN      X      Y      Z        X      Y      Z        X      Y      Z
     1   7     0.00   0.00  -0.11    -0.07   0.00  -0.00    -0.00  -0.07  -0.00
     2   1    -0.00   0.22   0.53     0.76   0.00   0.00     0.00  -0.15  -0.25
     3   1    -0.19  -0.11   0.53     0.08  -0.39   0.22    -0.39   0.53   0.13
     4   1     0.19  -0.11   0.53     0.08   0.39  -0.22     0.39   0.53   0.13
                      4                      5                      6
                     A1                      E                      E
 Frequencies --   3507.6824              3637.1550              3637.6523
 Red. masses --      1.0283                 1.0903                 1.0904
 Frc consts  --      7.4543                 8.4977                 8.5010
 IR Inten    --      0.7593                29.5235                29.6591
  Atom  AN      X      Y      Z        X      Y      Z        X      Y      Z
     1   7    -0.00   0.00   0.04    -0.08   0.00  -0.00    -0.00  -0.08   0.00
     2   1    -0.00   0.55  -0.18    -0.02  -0.00   0.00    -0.00   0.76  -0.30
     3   1    -0.47  -0.27  -0.18     0.56   0.34   0.26     0.33   0.18   0.15
     4   1     0.47  -0.27  -0.18     0.56  -0.34  -0.26    -0.33   0.18   0.15

 -------------------
 - Thermochemistry -
 -------------------
 Temperature   298.150 Kelvin.  Pressure   1.00000 Atm.
 Atom     1 has atomic number  7 and mass  14.00307
 Atom     2 has atomic number  1 and mass   1.00783
 Atom     3 has atomic number  1 and mass   1.00783
 Atom     4 has atomic number  1 and mass   1.00783
 Molecular mass:    17.02655 amu.
 Principal axes and moments of inertia in atomic units:
                           1         2         3
     Eigenvalues --     6.08994   6.08994   9.56851
           X           -0.28592   0.95825  -0.00000
           Y            0.95825   0.28592  -0.00000
           Z            0.00000   0.00000   1.00000
 This molecule is an oblate symmetric top.
 Rotational symmetry number  3.
 Rotational temperatures (Kelvin)     14.22245    14.22245     9.05198
 Rotational constants (GHZ):         296.34773   296.34773   188.61255
 Zero-point vibrational energy      90347.9 (Joules/Mol)
                                   21.59367 (Kcal/Mol)
 Vibrational temperatures:   1541.75  2338.28  2339.08  5046.77  5233.05
          (Kelvin)           5233.77
 
 Zero-point correction=                           0.034412 (Hartree/Particle)
 Thermal correction to Energy=                    0.037278
 Thermal correction to Enthalpy=                  0.038222
 Thermal correction to Gibbs Free Energy=         0.016376
 Sum of electronic and zero-point Energies=            -56.501716
 Sum of electronic and thermal Energies=               -56.498850
 Sum of electronic and thermal Enthalpies=             -56.497906
 Sum of electronic and thermal Free Energies=          -56.519752
 
                     E (Thermal)             CV                S
                      KCal/Mol        Cal/Mol-Kelvin    Cal/Mol-Kelvin
 Total                   23.392              6.363             45.979
 Electronic               0.000              0.000              0.000
 Translational            0.889              2.981             34.441
 Rotational               0.889              2.981             11.454
 Vibrational             21.615              0.401              0.084
                       Q            Log10(Q)             Ln(Q)
 Total Bot       0.293392D-07         -7.532551        -17.344340
 Total V=0       0.197568D+09          8.295718         19.101596
 Vib (Bot)       0.149467D-15        -15.825455        -36.439457
 Vib (V=0)       0.100650D+01          0.002814          0.006479
 Electronic      0.100000D+01          0.000000          0.000000
 Translational   0.276149D+07          6.441144         14.831282
 Rotational      0.710820D+02          1.851760          4.263835
 
                                                         Title Card Required
                                                             IR Spectrum
 
     33   3                                                                11                  1                                     
     66   5                                                                66                  0                                     
     33   0                                                                22                  7                                     
     87   8                                                                65                  2                                     
 
     XX   X                                                                XX                  X                                     
     XX                                                                    XX                  X                                     
                                                                           XX                  X                                     
                                                                                               X                                     
                                                                                               X                                     
                                                                                               X                                     
                                                                                               X                                     
                                                                                               X                                     
                                                                                               X                                     
                                                                                               X                                     
                                                                                               X                                     
                                                                                               X                                     
                                                                                               X                                     
                                                                                               X                                     
                                                                                               X                                     
                                                                                               X                                     
                                                                                               X                                     
                                                                                               X                                     
                                                                                               X                                     
                                                                                               X                                     
 
 ***** Axes restored to original set *****
 -------------------------------------------------------------------
 Center     Atomic                   Forces (Hartrees/Bohr)
 Number     Number              X              Y              Z
 -------------------------------------------------------------------
      1        7           0.000038751   -0.000067119    0.000072610
      2        1           0.000005395   -0.000009344   -0.000128051
      3        1          -0.000112766   -0.000014130    0.000027721
      4        1           0.000068620    0.000090593    0.000027721
 -------------------------------------------------------------------
 Cartesian Forces:  Max     0.000128051 RMS     0.000067799
 Force constants in Cartesian coordinates: 
                1             2             3             4             5 
      1  0.559923D+00
      2  0.160778D+00  0.374272D+00
      3 -0.657909D-01  0.113953D+00  0.606857D+00
      4 -0.473682D-01 -0.178939D-01 -0.247483D-01  0.467348D-01
      5 -0.178939D-01 -0.267061D-01  0.428654D-01  0.151106D-01  0.292866D-01
      6  0.954255D-03 -0.165282D-02 -0.439687D+00  0.371749D-02 -0.643889D-02
      7 -0.403278D+00 -0.755585D-02  0.127099D+00  0.124237D-02  0.209305D-02
      8  0.344031D-01 -0.267720D-01 -0.311904D-01 -0.416070D-03 -0.223113D-02
      9  0.101407D+00 -0.163452D-01 -0.835909D-01  0.399930D-01 -0.118477D-02
     10 -0.109273D+00 -0.135341D+00 -0.365378D-01 -0.636603D-03  0.668753D-03
     11 -0.177299D+00 -0.320777D+00 -0.125666D+00  0.317787D-02 -0.352162D-03
     12 -0.365482D-01 -0.959938D-01 -0.835909D-01 -0.189705D-01 -0.352274D-01
                6             7             8             9            10 
      6  0.461776D+00
      7 -0.525111D-02  0.417717D+00
      8  0.237549D-02 -0.986565D-03  0.293264D-01
      9 -0.110290D-01 -0.127769D+00  0.164196D-01  0.905997D-01
     10  0.568320D-03 -0.156588D-01 -0.329888D-01 -0.136597D-01  0.125570D+00
     11  0.573534D-02  0.645859D-02 -0.341579D-03  0.110656D-02  0.167685D+00
     12 -0.110290D-01  0.587155D-02  0.123829D-01  0.401056D-02  0.496647D-01
               11            12 
     11  0.321474D+00
     12  0.118861D+00  0.905997D-01
 FormGI is forming the generalized inverse of G from B-inverse, IUseBI=4.
 Force constants in internal coordinates: 
                1             2             3             4             5 
      1  0.461517D+00
      2 -0.204472D-02  0.461463D+00
      3 -0.204472D-02 -0.201777D-02  0.461463D+00
      4  0.695749D-02  0.709125D-02 -0.696895D-02  0.503124D-01
      5  0.166993D-01 -0.277710D-02  0.191760D-01 -0.390836D-01  0.126628D+00
      6 -0.281601D-02  0.165878D-01  0.188494D-01 -0.390888D-01 -0.191466D-01
      7 -0.142844D-01 -0.144036D-01 -0.946268D-02 -0.215603D-01 -0.465296D-02
                6             7 
      6  0.126752D+00
      7 -0.470401D-02  0.288556D-01
 Leave Link  716 at Fri Sep  1 15:14:00 2023, MaxMem=   104857600 cpu:               0.1 elap:               0.0
 (Enter /usr/local/gaussian/g16c01_gpu/g16/l103.exe)

 GradGradGradGradGradGradGradGradGradGradGradGradGradGradGradGradGradGrad
 Berny optimization.
 Red2BG is reusing G-inverse.
 Internal  Forces:  Max     0.000130405 RMS     0.000080021
 Search for a local minimum.
 Step number   1 out of a maximum of    2
 All quantities printed in internal units (Hartrees-Bohrs-Radians)
 Second derivative matrix not updated -- analytic derivatives used.
 The second derivative matrix:
                          R1        R2        R3        A1        A2
           R1           0.46152
           R2          -0.00204   0.46146
           R3          -0.00204  -0.00202   0.46146
           A1           0.00696   0.00709  -0.00697   0.05031
           A2           0.01670  -0.00278   0.01918  -0.03908   0.12663
           A3          -0.00282   0.01659   0.01885  -0.03909  -0.01915
           D1          -0.01428  -0.01440  -0.00946  -0.02156  -0.00465
                          A3        D1
           A3           0.12675
           D1          -0.00470   0.02886
 ITU=  0
     Eigenvalues ---    0.04317   0.13928   0.14465   0.46046   0.46470
     Eigenvalues ---    0.46473
 Angle between quadratic step and forces=  22.62 degrees.
 Linear search not attempted -- first point.
 Iteration  1 RMS(Cart)=  0.00020838 RMS(Int)=  0.00000002
 Iteration  2 RMS(Cart)=  0.00000001 RMS(Int)=  0.00000001
 ITry= 1 IFail=0 DXMaxC= 2.97D-04 DCOld= 1.00D+10 DXMaxT= 3.00D-01 DXLimC= 3.00D+00 Rises=F
 ClnCor:  largest displacement from symmetrization is 1.58D-04 for atom     4.
 Variable       Old X    -DE/DX   Delta X   Delta X   Delta X     New X
                                 (Linear)    (Quad)   (Total)
    R1        1.92089  -0.00013   0.00000  -0.00028  -0.00020   1.92070
    R2        1.92089  -0.00011   0.00000  -0.00023  -0.00020   1.92070
    R3        1.92089  -0.00011   0.00000  -0.00023  -0.00020   1.92070
    A1        1.86141   0.00001   0.00000  -0.00001  -0.00007   1.86134
    A2        1.86141  -0.00000   0.00000  -0.00001  -0.00007   1.86134
    A3        1.86141  -0.00004   0.00000  -0.00027  -0.00007   1.86134
    D1       -1.98408   0.00001   0.00000   0.00013   0.00013  -1.98394
         Item               Value     Threshold  Converged?
 Maximum Force            0.000130     0.000450     YES
 RMS     Force            0.000080     0.000300     YES
 Maximum Displacement     0.000215     0.001800     YES
 RMS     Displacement     0.000148     0.001200     YES
 Predicted change in Energy=-4.569812D-08
 Optimization completed.
    -- Stationary point found.
                           ----------------------------
                           !   Optimized Parameters   !
                           ! (Angstroms and Degrees)  !
 --------------------------                            --------------------------
 ! Name  Definition              Value          Derivative Info.                !
 --------------------------------------------------------------------------------
 ! R1    R(1,2)                  1.0165         -DE/DX =   -0.0001              !
 ! R2    R(1,3)                  1.0165         -DE/DX =   -0.0001              !
 ! R3    R(1,4)                  1.0165         -DE/DX =   -0.0001              !
 ! A1    A(2,1,3)              106.6508         -DE/DX =    0.0                 !
 ! A2    A(2,1,4)              106.6508         -DE/DX =    0.0                 !
 ! A3    A(3,1,4)              106.6508         -DE/DX =    0.0                 !
 ! D1    D(2,1,4,3)           -113.6792         -DE/DX =    0.0                 !
 --------------------------------------------------------------------------------
 GradGradGradGradGradGradGradGradGradGradGradGradGradGradGradGradGradGrad

 Leave Link  103 at Fri Sep  1 15:14:01 2023, MaxMem=   104857600 cpu:               0.0 elap:               0.0
 (Enter /usr/local/gaussian/g16c01_gpu/g16/l9999.exe)

 ----------------------------------------------------------------------

 Electric dipole moment (input orientation):
 (Debye = 10**-18 statcoulomb cm , SI units = C m)
                  (au)            (Debye)         (10**-30 SI)
   Tot        0.915934D+00      0.232807D+01      0.776561D+01
   x          0.431776D+00      0.109746D+01      0.366075D+01
   y         -0.747857D+00     -0.190086D+01     -0.634060D+01
   z          0.305311D+00      0.776024D+00      0.258854D+01

 Dipole polarizability, Alpha (input orientation).
 (esu units = cm**3 , SI units = C**2 m**2 J**-1)
 Alpha(0;0):
               (au)            (10**-24 esu)      (10**-40 SI)
   iso        0.125616D+02      0.186144D+01      0.207113D+01
   aniso      0.108270D+01      0.160440D+00      0.178514D+00
   xx         0.124399D+02      0.184340D+01      0.205106D+01
   yx        -0.417696D+00     -0.618962D-01     -0.688688D-01
   yy         0.129222D+02      0.191487D+01      0.213058D+01
   zx         0.169783D+00      0.251592D-01      0.279934D-01
   zy        -0.294072D+00     -0.435770D-01     -0.484859D-01
   zz         0.123227D+02      0.182603D+01      0.203173D+01

 ----------------------------------------------------------------------

 Dipole orientation:
     7          0.00000000         -0.00000000         -0.07115874
     1         -0.88948572          1.54063446          0.65347458
     1          1.77897144          0.00000000          0.65347458
     1         -0.88948572         -1.54063446          0.65347458

 Electric dipole moment (dipole orientation):
 (Debye = 10**-18 statcoulomb cm , SI units = C m)
                  (au)            (Debye)         (10**-30 SI)
   Tot        0.915934D+00      0.232807D+01      0.776561D+01
   x          0.000000D+00      0.000000D+00      0.000000D+00
   y          0.000000D+00      0.000000D+00      0.000000D+00
   z          0.915934D+00      0.232807D+01      0.776561D+01

 Dipole polarizability, Alpha (dipole orientation).
 (esu units = cm**3 , SI units = C**2 m**2 J**-1)
 Alpha(0;0):
               (au)            (10**-24 esu)      (10**-40 SI)
   iso        0.125616D+02      0.186144D+01      0.207113D+01
   aniso      0.108270D+01      0.160440D+00      0.178514D+00
   xx         0.121997D+02      0.180781D+01      0.201146D+01
   yx        -0.168582D-02     -0.249813D-03     -0.277954D-03
   yy         0.122017D+02      0.180810D+01      0.201178D+01
   zx         0.529099D-04      0.784044D-05      0.872367D-05
   zy        -0.916427D-04     -0.135800D-04     -0.151098D-04
   zz         0.132834D+02      0.196839D+01      0.219013D+01

 ----------------------------------------------------------------------
 Unable to Open any file for archive entry.
 1\1\GINC-HPC-N866\Freq\RM062X\6-31+G(d,p)\H3N1\PROSEIRO\01-Sep-2023\0\
 \#P Geom=AllCheck Guess=TCheck SCRF=Check GenChk RM062X/6-31+G(d,p) Fr
 eq\\Title Card Required\\0,1\N,-0.0177510119,0.0307456544,-0.012551860
 9\H,0.0061149769,-0.0105914507,1.002820033\H,0.9475061198,-0.010591450
 7,-0.3285080888\H,-0.4645805945,-0.8258600954,-0.3285080888\\Version=E
 S64L-G16RevC.01\State=1-A1\HF=-56.5361278\RMSD=0.000e+00\RMSF=6.780e-0
 5\ZeroPoint=0.0344117\Thermal=0.0372779\ETot=-56.4988499\HTot=-56.4979
 057\GTot=-56.5197516\Dipole=0.4317756,-0.7478572,0.3053114\DipoleDeriv
 =-0.6997412,0.0817382,-0.0328652,0.0817382,-0.7941243,0.0569242,-0.033
 4653,0.0579636,-0.6765513,0.276868,-0.048248,-0.0522064,-0.048248,0.33
 25799,0.0904242,-0.0193952,0.0335936,0.1140904,0.1095401,0.0156995,0.0
 395086,0.0688438,0.3326933,-0.0755863,0.0070132,-0.0568062,0.2812567,0
 .3135133,-0.0489202,0.0457054,-0.1020645,0.1287201,-0.0720086,0.045689
 ,-0.0344767,0.2812567\Polar=12.4398979,-0.4176961,12.9222118,0.1697826
 ,-0.294072,12.3226511\Quadrupole=0.2948002,-0.8844005,0.5896003,1.0212
 177,-0.4169104,0.72211\PG=C03V [C3(N1),3SGV(H1)]\NImag=0\\0.55992325,0
 .16077840,0.37427235,-0.06579091,0.11395320,0.60685722,-0.04736817,-0.
 01789389,-0.02474835,0.04673478,-0.01789389,-0.02670608,0.04286540,0.0
 1511056,0.02928660,0.00095425,-0.00165282,-0.43968727,0.00371749,-0.00
 643889,0.46177641,-0.40327782,-0.00755585,0.12709897,0.00124237,0.0020
 9305,-0.00525111,0.41771693,0.03440306,-0.02677200,-0.03119044,-0.0004
 1607,-0.00223113,0.00237549,-0.00098657,0.02932637,0.10140716,-0.01634
 523,-0.08359088,0.03999301,-0.00118477,-0.01102904,-0.12776898,0.01641
 955,0.09059974,-0.10927327,-0.13534054,-0.03653777,-0.00063660,0.00066
 875,0.00056832,-0.01565879,-0.03298878,-0.01365972,0.12556962,-0.17729
 946,-0.32077654,-0.12566616,0.00317787,-0.00035216,0.00573534,0.006458
 59,-0.00034158,0.00110656,0.16768476,0.32147368,-0.03654820,-0.0959937
 9,-0.08359088,-0.01897047,-0.03522735,-0.01102904,0.00587155,0.0123829
 5,0.00401056,0.04966474,0.11886096,0.09059974\\-0.00003875,0.00006712,
 -0.00007261,-0.00000539,0.00000934,0.00012805,0.00011277,0.00001413,-0
 .00002772,-0.00006862,-0.00009059,-0.00002772\\\@
 The archive entry for this job was punched.


 When cryptography is outlawed, bayl bhgynjf jvyy unir cevinpl.
 Job cpu time:       0 days  0 hours  0 minutes  8.0 seconds.
 Elapsed time:       0 days  0 hours  0 minutes  7.9 seconds.
 File lengths (MBytes):  RWF=     10 Int=      0 D2E=      0 Chk=      3 Scr=      1
 Normal termination of Gaussian 16 at Fri Sep  1 15:14:01 2023.
